+ 0 0 4 tcp 40 ------- 1 0.0 6.0 0 0
- 0 0 4 tcp 40 ------- 1 0.0 6.0 0 0
r 0.025003 0 4 tcp 40 ------- 1 0.0 6.0 0 0
+ 0.025003 4 5 tcp 40 ------- 1 0.0 6.0 0 0
- 0.025003 4 5 tcp 40 ------- 1 0.0 6.0 0 0
+ 0.1 1 4 tcp 40 ------- 2 1.0 7.0 0 1
- 0.1 1 4 tcp 40 ------- 2 1.0 7.0 0 1
r 0.125003 1 4 tcp 40 ------- 2 1.0 7.0 0 1
+ 0.125003 4 5 tcp 40 ------- 2 1.0 7.0 0 1
- 0.125003 4 5 tcp 40 ------- 2 1.0 7.0 0 1
r 0.125643 4 5 tcp 40 ------- 1 0.0 6.0 0 0
+ 0.125643 5 6 tcp 40 ------- 1 0.0 6.0 0 0
- 0.125643 5 6 tcp 40 ------- 1 0.0 6.0 0 0
r 0.150646 5 6 tcp 40 ------- 1 0.0 6.0 0 0
+ 0.150646 6 5 ack 40 ------- 1 6.0 0.0 0 2
- 0.150646 6 5 ack 40 ------- 1 6.0 0.0 0 2
r 0.17565 6 5 ack 40 ------- 1 6.0 0.0 0 2
+ 0.17565 5 4 ack 40 ------- 1 6.0 0.0 0 2
- 0.17565 5 4 ack 40 ------- 1 6.0 0.0 0 2
+ 0.2 3 4 cbr 1000 ------- 3 3.0 8.0 0 3
- 0.2 3 4 cbr 1000 ------- 3 3.0 8.0 0 3
+ 0.217857 3 4 cbr 1000 ------- 3 3.0 8.0 1 4
- 0.217857 3 4 cbr 1000 ------- 3 3.0 8.0 1 4
r 0.22508 3 4 cbr 1000 ------- 3 3.0 8.0 0 3
+ 0.22508 4 5 cbr 1000 ------- 3 3.0 8.0 0 3
- 0.22508 4 5 cbr 1000 ------- 3 3.0 8.0 0 3
r 0.225643 4 5 tcp 40 ------- 2 1.0 7.0 0 1
+ 0.225643 5 7 tcp 40 ------- 2 1.0 7.0 0 1
- 0.225643 5 7 tcp 40 ------- 2 1.0 7.0 0 1
+ 0.235714 3 4 cbr 1000 ------- 3 3.0 8.0 2 5
- 0.235714 3 4 cbr 1000 ------- 3 3.0 8.0 2 5
r 0.242937 3 4 cbr 1000 ------- 3 3.0 8.0 1 4
+ 0.242937 4 5 cbr 1000 ------- 3 3.0 8.0 1 4
- 0.242937 4 5 cbr 1000 ------- 3 3.0 8.0 1 4
r 0.250646 5 7 tcp 40 ------- 2 1.0 7.0 0 1
+ 0.250646 7 5 ack 40 ------- 2 7.0 1.0 0 6
- 0.250646 7 5 ack 40 ------- 2 7.0 1.0 0 6
+ 0.253571 3 4 cbr 1000 ------- 3 3.0 8.0 3 7
- 0.253571 3 4 cbr 1000 ------- 3 3.0 8.0 3 7
r 0.260794 3 4 cbr 1000 ------- 3 3.0 8.0 2 5
+ 0.260794 4 5 cbr 1000 ------- 3 3.0 8.0 2 5
- 0.260794 4 5 cbr 1000 ------- 3 3.0 8.0 2 5
+ 0.271429 3 4 cbr 1000 ------- 3 3.0 8.0 4 8
- 0.271429 3 4 cbr 1000 ------- 3 3.0 8.0 4 8
r 0.27565 7 5 ack 40 ------- 2 7.0 1.0 0 6
+ 0.27565 5 4 ack 40 ------- 2 7.0 1.0 0 6
- 0.27565 5 4 ack 40 ------- 2 7.0 1.0 0 6
r 0.27629 5 4 ack 40 ------- 1 6.0 0.0 0 2
+ 0.27629 4 0 ack 40 ------- 1 6.0 0.0 0 2
- 0.27629 4 0 ack 40 ------- 1 6.0 0.0 0 2
r 0.278651 3 4 cbr 1000 ------- 3 3.0 8.0 3 7
+ 0.278651 4 5 cbr 1000 ------- 3 3.0 8.0 3 7
- 0.278651 4 5 cbr 1000 ------- 3 3.0 8.0 3 7
+ 0.289286 3 4 cbr 1000 ------- 3 3.0 8.0 5 9
- 0.289286 3 4 cbr 1000 ------- 3 3.0 8.0 5 9
r 0.296509 3 4 cbr 1000 ------- 3 3.0 8.0 4 8
+ 0.296509 4 5 cbr 1000 ------- 3 3.0 8.0 4 8
- 0.296509 4 5 cbr 1000 ------- 3 3.0 8.0 4 8
+ 0.3 3 4 cbr 1000 ------- 4 3.1 9.0 0 10
- 0.3 3 4 cbr 1000 ------- 4 3.1 9.0 0 10
r 0.301293 4 0 ack 40 ------- 1 6.0 0.0 0 2
+ 0.301293 0 4 tcp 1040 ------- 1 0.0 6.0 1 11
- 0.301293 0 4 tcp 1040 ------- 1 0.0 6.0 1 11
+ 0.301293 0 4 tcp 1040 ------- 1 0.0 6.0 2 12
- 0.301376 0 4 tcp 1040 ------- 1 0.0 6.0 2 12
+ 0.307143 3 4 cbr 1000 ------- 3 3.0 8.0 6 13
- 0.307143 3 4 cbr 1000 ------- 3 3.0 8.0 6 13
r 0.314366 3 4 cbr 1000 ------- 3 3.0 8.0 5 9
+ 0.314366 4 5 cbr 1000 ------- 3 3.0 8.0 5 9
- 0.314366 4 5 cbr 1000 ------- 3 3.0 8.0 5 9
+ 0.317857 3 4 cbr 1000 ------- 4 3.1 9.0 1 14
- 0.317857 3 4 cbr 1000 ------- 4 3.1 9.0 1 14
+ 0.325 3 4 cbr 1000 ------- 3 3.0 8.0 7 15
- 0.325 3 4 cbr 1000 ------- 3 3.0 8.0 7 15
r 0.32508 3 4 cbr 1000 ------- 4 3.1 9.0 0 10
+ 0.32508 4 5 cbr 1000 ------- 4 3.1 9.0 0 10
r 0.326376 0 4 tcp 1040 ------- 1 0.0 6.0 1 11
+ 0.326376 4 5 tcp 1040 ------- 1 0.0 6.0 1 11
r 0.326459 0 4 tcp 1040 ------- 1 0.0 6.0 2 12
+ 0.326459 4 5 tcp 1040 ------- 1 0.0 6.0 2 12
- 0.330366 4 5 cbr 1000 ------- 4 3.1 9.0 0 10
r 0.332223 3 4 cbr 1000 ------- 3 3.0 8.0 6 13
+ 0.332223 4 5 cbr 1000 ------- 3 3.0 8.0 6 13
+ 0.335714 3 4 cbr 1000 ------- 4 3.1 9.0 2 16
- 0.335714 3 4 cbr 1000 ------- 4 3.1 9.0 2 16
r 0.34108 4 5 cbr 1000 ------- 3 3.0 8.0 0 3
+ 0.34108 5 8 cbr 1000 ------- 3 3.0 8.0 0 3
- 0.34108 5 8 cbr 1000 ------- 3 3.0 8.0 0 3
+ 0.342857 3 4 cbr 1000 ------- 3 3.0 8.0 8 17
- 0.342857 3 4 cbr 1000 ------- 3 3.0 8.0 8 17
r 0.342937 3 4 cbr 1000 ------- 4 3.1 9.0 1 14
+ 0.342937 4 5 cbr 1000 ------- 4 3.1 9.0 1 14
- 0.346366 4 5 tcp 1040 ------- 1 0.0 6.0 1 11
r 0.35008 3 4 cbr 1000 ------- 3 3.0 8.0 7 15
+ 0.35008 4 5 cbr 1000 ------- 3 3.0 8.0 7 15
+ 0.353571 3 4 cbr 1000 ------- 4 3.1 9.0 3 18
- 0.353571 3 4 cbr 1000 ------- 4 3.1 9.0 3 18
r 0.358937 4 5 cbr 1000 ------- 3 3.0 8.0 1 4
+ 0.358937 5 8 cbr 1000 ------- 3 3.0 8.0 1 4
- 0.358937 5 8 cbr 1000 ------- 3 3.0 8.0 1 4
+ 0.360714 3 4 cbr 1000 ------- 3 3.0 8.0 9 19
- 0.360714 3 4 cbr 1000 ------- 3 3.0 8.0 9 19
r 0.360794 3 4 cbr 1000 ------- 4 3.1 9.0 2 16
+ 0.360794 4 5 cbr 1000 ------- 4 3.1 9.0 2 16
- 0.363006 4 5 tcp 1040 ------- 1 0.0 6.0 2 12
r 0.36616 5 8 cbr 1000 ------- 3 3.0 8.0 0 3
r 0.367937 3 4 cbr 1000 ------- 3 3.0 8.0 8 17
+ 0.367937 4 5 cbr 1000 ------- 3 3.0 8.0 8 17
+ 0.371429 3 4 cbr 1000 ------- 4 3.1 9.0 4 20
- 0.371429 3 4 cbr 1000 ------- 4 3.1 9.0 4 20
r 0.37629 5 4 ack 40 ------- 2 7.0 1.0 0 6
+ 0.37629 4 1 ack 40 ------- 2 7.0 1.0 0 6
- 0.37629 4 1 ack 40 ------- 2 7.0 1.0 0 6
r 0.376794 4 5 cbr 1000 ------- 3 3.0 8.0 2 5
+ 0.376794 5 8 cbr 1000 ------- 3 3.0 8.0 2 5
- 0.376794 5 8 cbr 1000 ------- 3 3.0 8.0 2 5
+ 0.378571 3 4 cbr 1000 ------- 3 3.0 8.0 10 21
- 0.378571 3 4 cbr 1000 ------- 3 3.0 8.0 10 21
r 0.378651 3 4 cbr 1000 ------- 4 3.1 9.0 3 18
+ 0.378651 4 5 cbr 1000 ------- 4 3.1 9.0 3 18
- 0.379646 4 5 cbr 1000 ------- 3 3.0 8.0 6 13
r 0.384017 5 8 cbr 1000 ------- 3 3.0 8.0 1 4
r 0.385794 3 4 cbr 1000 ------- 3 3.0 8.0 9 19
+ 0.385794 4 5 cbr 1000 ------- 3 3.0 8.0 9 19
+ 0.389286 3 4 cbr 1000 ------- 4 3.1 9.0 5 22
- 0.389286 3 4 cbr 1000 ------- 4 3.1 9.0 5 22
r 0.394651 4 5 cbr 1000 ------- 3 3.0 8.0 3 7
+ 0.394651 5 8 cbr 1000 ------- 3 3.0 8.0 3 7
- 0.394651 5 8 cbr 1000 ------- 3 3.0 8.0 3 7
- 0.395646 4 5 cbr 1000 ------- 4 3.1 9.0 1 14
+ 0.396429 3 4 cbr 1000 ------- 3 3.0 8.0 11 23
- 0.396429 3 4 cbr 1000 ------- 3 3.0 8.0 11 23
r 0.396509 3 4 cbr 1000 ------- 4 3.1 9.0 4 20
+ 0.396509 4 5 cbr 1000 ------- 4 3.1 9.0 4 20
r 0.401293 4 1 ack 40 ------- 2 7.0 1.0 0 6
+ 0.401293 1 4 tcp 1040 ------- 2 1.0 7.0 1 24
- 0.401293 1 4 tcp 1040 ------- 2 1.0 7.0 1 24
+ 0.401293 1 4 tcp 1040 ------- 2 1.0 7.0 2 25
- 0.401376 1 4 tcp 1040 ------- 2 1.0 7.0 2 25
r 0.401874 5 8 cbr 1000 ------- 3 3.0 8.0 2 5
r 0.403651 3 4 cbr 1000 ------- 3 3.0 8.0 10 21
+ 0.403651 4 5 cbr 1000 ------- 3 3.0 8.0 10 21
+ 0.407143 3 4 cbr 1000 ------- 4 3.1 9.0 6 26
- 0.407143 3 4 cbr 1000 ------- 4 3.1 9.0 6 26
- 0.411646 4 5 cbr 1000 ------- 3 3.0 8.0 7 15
r 0.412509 4 5 cbr 1000 ------- 3 3.0 8.0 4 8
+ 0.412509 5 8 cbr 1000 ------- 3 3.0 8.0 4 8
- 0.412509 5 8 cbr 1000 ------- 3 3.0 8.0 4 8
+ 0.414286 3 4 cbr 1000 ------- 3 3.0 8.0 12 27
- 0.414286 3 4 cbr 1000 ------- 3 3.0 8.0 12 27
r 0.414366 3 4 cbr 1000 ------- 4 3.1 9.0 5 22
+ 0.414366 4 5 cbr 1000 ------- 4 3.1 9.0 5 22
r 0.419731 5 8 cbr 1000 ------- 3 3.0 8.0 3 7
r 0.421509 3 4 cbr 1000 ------- 3 3.0 8.0 11 23
+ 0.421509 4 5 cbr 1000 ------- 3 3.0 8.0 11 23
+ 0.425 3 4 cbr 1000 ------- 4 3.1 9.0 7 28
- 0.425 3 4 cbr 1000 ------- 4 3.1 9.0 7 28
r 0.426376 1 4 tcp 1040 ------- 2 1.0 7.0 1 24
+ 0.426376 4 5 tcp 1040 ------- 2 1.0 7.0 1 24
r 0.426459 1 4 tcp 1040 ------- 2 1.0 7.0 2 25
+ 0.426459 4 5 tcp 1040 ------- 2 1.0 7.0 2 25
- 0.427646 4 5 cbr 1000 ------- 4 3.1 9.0 2 16
r 0.430366 4 5 cbr 1000 ------- 3 3.0 8.0 5 9
+ 0.430366 5 8 cbr 1000 ------- 3 3.0 8.0 5 9
- 0.430366 5 8 cbr 1000 ------- 3 3.0 8.0 5 9
+ 0.432143 3 4 cbr 1000 ------- 3 3.0 8.0 13 29
- 0.432143 3 4 cbr 1000 ------- 3 3.0 8.0 13 29
r 0.432223 3 4 cbr 1000 ------- 4 3.1 9.0 6 26
+ 0.432223 4 5 cbr 1000 ------- 4 3.1 9.0 6 26
r 0.437589 5 8 cbr 1000 ------- 3 3.0 8.0 4 8
r 0.439366 3 4 cbr 1000 ------- 3 3.0 8.0 12 27
+ 0.439366 4 5 cbr 1000 ------- 3 3.0 8.0 12 27
+ 0.442857 3 4 cbr 1000 ------- 4 3.1 9.0 8 30
- 0.442857 3 4 cbr 1000 ------- 4 3.1 9.0 8 30
- 0.443646 4 5 cbr 1000 ------- 3 3.0 8.0 8 17
r 0.446366 4 5 cbr 1000 ------- 4 3.1 9.0 0 10
+ 0.446366 5 9 cbr 1000 ------- 4 3.1 9.0 0 10
- 0.446366 5 9 cbr 1000 ------- 4 3.1 9.0 0 10
+ 0.45 3 4 cbr 1000 ------- 3 3.0 8.0 14 31
- 0.45 3 4 cbr 1000 ------- 3 3.0 8.0 14 31
r 0.45008 3 4 cbr 1000 ------- 4 3.1 9.0 7 28
+ 0.45008 4 5 cbr 1000 ------- 4 3.1 9.0 7 28
r 0.455446 5 8 cbr 1000 ------- 3 3.0 8.0 5 9
r 0.457223 3 4 cbr 1000 ------- 3 3.0 8.0 13 29
+ 0.457223 4 5 cbr 1000 ------- 3 3.0 8.0 13 29
- 0.459646 4 5 cbr 1000 ------- 4 3.1 9.0 3 18
+ 0.460714 3 4 cbr 1000 ------- 4 3.1 9.0 9 32
- 0.460714 3 4 cbr 1000 ------- 4 3.1 9.0 9 32
r 0.463006 4 5 tcp 1040 ------- 1 0.0 6.0 1 11
+ 0.463006 5 6 tcp 1040 ------- 1 0.0 6.0 1 11
- 0.463006 5 6 tcp 1040 ------- 1 0.0 6.0 1 11
+ 0.467857 3 4 cbr 1000 ------- 3 3.0 8.0 15 33
- 0.467857 3 4 cbr 1000 ------- 3 3.0 8.0 15 33
r 0.467937 3 4 cbr 1000 ------- 4 3.1 9.0 8 30
+ 0.467937 4 5 cbr 1000 ------- 4 3.1 9.0 8 30
r 0.471446 5 9 cbr 1000 ------- 4 3.1 9.0 0 10
r 0.47508 3 4 cbr 1000 ------- 3 3.0 8.0 14 31
+ 0.47508 4 5 cbr 1000 ------- 3 3.0 8.0 14 31
- 0.475646 4 5 cbr 1000 ------- 3 3.0 8.0 9 19
+ 0.478571 3 4 cbr 1000 ------- 4 3.1 9.0 10 34
- 0.478571 3 4 cbr 1000 ------- 4 3.1 9.0 10 34
r 0.479646 4 5 tcp 1040 ------- 1 0.0 6.0 2 12
+ 0.479646 5 6 tcp 1040 ------- 1 0.0 6.0 2 12
- 0.479646 5 6 tcp 1040 ------- 1 0.0 6.0 2 12
+ 0.485714 3 4 cbr 1000 ------- 3 3.0 8.0 16 35
- 0.485714 3 4 cbr 1000 ------- 3 3.0 8.0 16 35
r 0.485794 3 4 cbr 1000 ------- 4 3.1 9.0 9 32
+ 0.485794 4 5 cbr 1000 ------- 4 3.1 9.0 9 32
r 0.488089 5 6 tcp 1040 ------- 1 0.0 6.0 1 11
+ 0.488089 6 5 ack 40 ------- 1 6.0 0.0 1 36
- 0.488089 6 5 ack 40 ------- 1 6.0 0.0 1 36
- 0.491646 4 5 cbr 1000 ------- 4 3.1 9.0 4 20
r 0.492937 3 4 cbr 1000 ------- 3 3.0 8.0 15 33
+ 0.492937 4 5 cbr 1000 ------- 3 3.0 8.0 15 33
r 0.495646 4 5 cbr 1000 ------- 3 3.0 8.0 6 13
+ 0.495646 5 8 cbr 1000 ------- 3 3.0 8.0 6 13
- 0.495646 5 8 cbr 1000 ------- 3 3.0 8.0 6 13
+ 0.496429 3 4 cbr 1000 ------- 4 3.1 9.0 11 37
- 0.496429 3 4 cbr 1000 ------- 4 3.1 9.0 11 37
+ 0.503571 3 4 cbr 1000 ------- 3 3.0 8.0 17 38
- 0.503571 3 4 cbr 1000 ------- 3 3.0 8.0 17 38
r 0.503651 3 4 cbr 1000 ------- 4 3.1 9.0 10 34
+ 0.503651 4 5 cbr 1000 ------- 4 3.1 9.0 10 34
r 0.504729 5 6 tcp 1040 ------- 1 0.0 6.0 2 12
+ 0.504729 6 5 ack 40 ------- 1 6.0 0.0 2 39
- 0.504729 6 5 ack 40 ------- 1 6.0 0.0 2 39
- 0.507646 4 5 cbr 1000 ------- 3 3.0 8.0 10 21
r 0.510794 3 4 cbr 1000 ------- 3 3.0 8.0 16 35
+ 0.510794 4 5 cbr 1000 ------- 3 3.0 8.0 16 35
r 0.511646 4 5 cbr 1000 ------- 4 3.1 9.0 1 14
+ 0.511646 5 9 cbr 1000 ------- 4 3.1 9.0 1 14
- 0.511646 5 9 cbr 1000 ------- 4 3.1 9.0 1 14
r 0.513092 6 5 ack 40 ------- 1 6.0 0.0 1 36
+ 0.513092 5 4 ack 40 ------- 1 6.0 0.0 1 36
- 0.513092 5 4 ack 40 ------- 1 6.0 0.0 1 36
+ 0.514286 3 4 cbr 1000 ------- 4 3.1 9.0 12 40
- 0.514286 3 4 cbr 1000 ------- 4 3.1 9.0 12 40
r 0.520726 5 8 cbr 1000 ------- 3 3.0 8.0 6 13
+ 0.521429 3 4 cbr 1000 ------- 3 3.0 8.0 18 41
- 0.521429 3 4 cbr 1000 ------- 3 3.0 8.0 18 41
r 0.521509 3 4 cbr 1000 ------- 4 3.1 9.0 11 37
+ 0.521509 4 5 cbr 1000 ------- 4 3.1 9.0 11 37
- 0.523646 4 5 cbr 1000 ------- 4 3.1 9.0 5 22
r 0.527646 4 5 cbr 1000 ------- 3 3.0 8.0 7 15
+ 0.527646 5 8 cbr 1000 ------- 3 3.0 8.0 7 15
- 0.527646 5 8 cbr 1000 ------- 3 3.0 8.0 7 15
r 0.528651 3 4 cbr 1000 ------- 3 3.0 8.0 17 38
+ 0.528651 4 5 cbr 1000 ------- 3 3.0 8.0 17 38
r 0.529732 6 5 ack 40 ------- 1 6.0 0.0 2 39
+ 0.529732 5 4 ack 40 ------- 1 6.0 0.0 2 39
- 0.529732 5 4 ack 40 ------- 1 6.0 0.0 2 39
+ 0.532143 3 4 cbr 1000 ------- 4 3.1 9.0 13 42
- 0.532143 3 4 cbr 1000 ------- 4 3.1 9.0 13 42
r 0.536726 5 9 cbr 1000 ------- 4 3.1 9.0 1 14
+ 0.539286 3 4 cbr 1000 ------- 3 3.0 8.0 19 43
- 0.539286 3 4 cbr 1000 ------- 3 3.0 8.0 19 43
r 0.539366 3 4 cbr 1000 ------- 4 3.1 9.0 12 40
+ 0.539366 4 5 cbr 1000 ------- 4 3.1 9.0 12 40
- 0.539646 4 5 cbr 1000 ------- 3 3.0 8.0 11 23
r 0.543646 4 5 cbr 1000 ------- 4 3.1 9.0 2 16
+ 0.543646 5 9 cbr 1000 ------- 4 3.1 9.0 2 16
- 0.543646 5 9 cbr 1000 ------- 4 3.1 9.0 2 16
r 0.546509 3 4 cbr 1000 ------- 3 3.0 8.0 18 41
+ 0.546509 4 5 cbr 1000 ------- 3 3.0 8.0 18 41
+ 0.55 3 4 cbr 1000 ------- 4 3.1 9.0 14 44
- 0.55 3 4 cbr 1000 ------- 4 3.1 9.0 14 44
r 0.552726 5 8 cbr 1000 ------- 3 3.0 8.0 7 15
- 0.555646 4 5 tcp 1040 ------- 2 1.0 7.0 1 24
+ 0.557143 3 4 cbr 1000 ------- 3 3.0 8.0 20 45
- 0.557143 3 4 cbr 1000 ------- 3 3.0 8.0 20 45
r 0.557223 3 4 cbr 1000 ------- 4 3.1 9.0 13 42
+ 0.557223 4 5 cbr 1000 ------- 4 3.1 9.0 13 42
r 0.559646 4 5 cbr 1000 ------- 3 3.0 8.0 8 17
+ 0.559646 5 8 cbr 1000 ------- 3 3.0 8.0 8 17
- 0.559646 5 8 cbr 1000 ------- 3 3.0 8.0 8 17
r 0.564366 3 4 cbr 1000 ------- 3 3.0 8.0 19 43
+ 0.564366 4 5 cbr 1000 ------- 3 3.0 8.0 19 43
+ 0.567857 3 4 cbr 1000 ------- 4 3.1 9.0 15 46
- 0.567857 3 4 cbr 1000 ------- 4 3.1 9.0 15 46
r 0.568726 5 9 cbr 1000 ------- 4 3.1 9.0 2 16
- 0.572286 4 5 tcp 1040 ------- 2 1.0 7.0 2 25
+ 0.575 3 4 cbr 1000 ------- 3 3.0 8.0 21 47
- 0.575 3 4 cbr 1000 ------- 3 3.0 8.0 21 47
r 0.57508 3 4 cbr 1000 ------- 4 3.1 9.0 14 44
+ 0.57508 4 5 cbr 1000 ------- 4 3.1 9.0 14 44
r 0.575646 4 5 cbr 1000 ------- 4 3.1 9.0 3 18
+ 0.575646 5 9 cbr 1000 ------- 4 3.1 9.0 3 18
- 0.575646 5 9 cbr 1000 ------- 4 3.1 9.0 3 18
r 0.582223 3 4 cbr 1000 ------- 3 3.0 8.0 20 45
+ 0.582223 4 5 cbr 1000 ------- 3 3.0 8.0 20 45
r 0.584726 5 8 cbr 1000 ------- 3 3.0 8.0 8 17
+ 0.585714 3 4 cbr 1000 ------- 4 3.1 9.0 16 48
- 0.585714 3 4 cbr 1000 ------- 4 3.1 9.0 16 48
- 0.588926 4 5 cbr 1000 ------- 4 3.1 9.0 6 26
r 0.591646 4 5 cbr 1000 ------- 3 3.0 8.0 9 19
+ 0.591646 5 8 cbr 1000 ------- 3 3.0 8.0 9 19
- 0.591646 5 8 cbr 1000 ------- 3 3.0 8.0 9 19
+ 0.592857 3 4 cbr 1000 ------- 3 3.0 8.0 22 49
- 0.592857 3 4 cbr 1000 ------- 3 3.0 8.0 22 49
r 0.592937 3 4 cbr 1000 ------- 4 3.1 9.0 15 46
+ 0.592937 4 5 cbr 1000 ------- 4 3.1 9.0 15 46
r 0.60008 3 4 cbr 1000 ------- 3 3.0 8.0 21 47
+ 0.60008 4 5 cbr 1000 ------- 3 3.0 8.0 21 47
r 0.600726 5 9 cbr 1000 ------- 4 3.1 9.0 3 18
+ 0.603571 3 4 cbr 1000 ------- 4 3.1 9.0 17 50
- 0.603571 3 4 cbr 1000 ------- 4 3.1 9.0 17 50
- 0.604926 4 5 cbr 1000 ------- 3 3.0 8.0 12 27
r 0.607646 4 5 cbr 1000 ------- 4 3.1 9.0 4 20
+ 0.607646 5 9 cbr 1000 ------- 4 3.1 9.0 4 20
- 0.607646 5 9 cbr 1000 ------- 4 3.1 9.0 4 20
+ 0.610714 3 4 cbr 1000 ------- 3 3.0 8.0 23 51
- 0.610714 3 4 cbr 1000 ------- 3 3.0 8.0 23 51
r 0.610794 3 4 cbr 1000 ------- 4 3.1 9.0 16 48
+ 0.610794 4 5 cbr 1000 ------- 4 3.1 9.0 16 48
r 0.613732 5 4 ack 40 ------- 1 6.0 0.0 1 36
+ 0.613732 4 0 ack 40 ------- 1 6.0 0.0 1 36
- 0.613732 4 0 ack 40 ------- 1 6.0 0.0 1 36
r 0.616726 5 8 cbr 1000 ------- 3 3.0 8.0 9 19
r 0.617937 3 4 cbr 1000 ------- 3 3.0 8.0 22 49
+ 0.617937 4 5 cbr 1000 ------- 3 3.0 8.0 22 49
- 0.620926 4 5 cbr 1000 ------- 4 3.1 9.0 7 28
+ 0.621429 3 4 cbr 1000 ------- 4 3.1 9.0 18 52
- 0.621429 3 4 cbr 1000 ------- 4 3.1 9.0 18 52
r 0.623646 4 5 cbr 1000 ------- 3 3.0 8.0 10 21
+ 0.623646 5 8 cbr 1000 ------- 3 3.0 8.0 10 21
- 0.623646 5 8 cbr 1000 ------- 3 3.0 8.0 10 21
+ 0.628571 3 4 cbr 1000 ------- 3 3.0 8.0 24 53
- 0.628571 3 4 cbr 1000 ------- 3 3.0 8.0 24 53
r 0.628651 3 4 cbr 1000 ------- 4 3.1 9.0 17 50
+ 0.628651 4 5 cbr 1000 ------- 4 3.1 9.0 17 50
r 0.630372 5 4 ack 40 ------- 1 6.0 0.0 2 39
+ 0.630372 4 0 ack 40 ------- 1 6.0 0.0 2 39
- 0.630372 4 0 ack 40 ------- 1 6.0 0.0 2 39
r 0.632726 5 9 cbr 1000 ------- 4 3.1 9.0 4 20
r 0.635794 3 4 cbr 1000 ------- 3 3.0 8.0 23 51
+ 0.635794 4 5 cbr 1000 ------- 3 3.0 8.0 23 51
- 0.636926 4 5 cbr 1000 ------- 3 3.0 8.0 13 29
r 0.638735 4 0 ack 40 ------- 1 6.0 0.0 1 36
+ 0.638735 0 4 tcp 1040 ------- 1 0.0 6.0 3 54
- 0.638735 0 4 tcp 1040 ------- 1 0.0 6.0 3 54
+ 0.638735 0 4 tcp 1040 ------- 1 0.0 6.0 4 55
- 0.638819 0 4 tcp 1040 ------- 1 0.0 6.0 4 55
+ 0.639286 3 4 cbr 1000 ------- 4 3.1 9.0 19 56
- 0.639286 3 4 cbr 1000 ------- 4 3.1 9.0 19 56
r 0.639646 4 5 cbr 1000 ------- 4 3.1 9.0 5 22
+ 0.639646 5 9 cbr 1000 ------- 4 3.1 9.0 5 22
- 0.639646 5 9 cbr 1000 ------- 4 3.1 9.0 5 22
+ 0.646429 3 4 cbr 1000 ------- 3 3.0 8.0 25 57
- 0.646429 3 4 cbr 1000 ------- 3 3.0 8.0 25 57
r 0.646509 3 4 cbr 1000 ------- 4 3.1 9.0 18 52
+ 0.646509 4 5 cbr 1000 ------- 4 3.1 9.0 18 52
r 0.648726 5 8 cbr 1000 ------- 3 3.0 8.0 10 21
- 0.652926 4 5 cbr 1000 ------- 4 3.1 9.0 8 30
r 0.653651 3 4 cbr 1000 ------- 3 3.0 8.0 24 53
+ 0.653651 4 5 cbr 1000 ------- 3 3.0 8.0 24 53
r 0.655375 4 0 ack 40 ------- 1 6.0 0.0 2 39
+ 0.655375 0 4 tcp 1040 ------- 1 0.0 6.0 5 58
- 0.655375 0 4 tcp 1040 ------- 1 0.0 6.0 5 58
+ 0.655375 0 4 tcp 1040 ------- 1 0.0 6.0 6 59
- 0.655459 0 4 tcp 1040 ------- 1 0.0 6.0 6 59
r 0.655646 4 5 cbr 1000 ------- 3 3.0 8.0 11 23
+ 0.655646 5 8 cbr 1000 ------- 3 3.0 8.0 11 23
- 0.655646 5 8 cbr 1000 ------- 3 3.0 8.0 11 23
+ 0.657143 3 4 cbr 1000 ------- 4 3.1 9.0 20 60
- 0.657143 3 4 cbr 1000 ------- 4 3.1 9.0 20 60
r 0.663819 0 4 tcp 1040 ------- 1 0.0 6.0 3 54
+ 0.663819 4 5 tcp 1040 ------- 1 0.0 6.0 3 54
r 0.663902 0 4 tcp 1040 ------- 1 0.0 6.0 4 55
+ 0.663902 4 5 tcp 1040 ------- 1 0.0 6.0 4 55
+ 0.664286 3 4 cbr 1000 ------- 3 3.0 8.0 26 61
- 0.664286 3 4 cbr 1000 ------- 3 3.0 8.0 26 61
r 0.664366 3 4 cbr 1000 ------- 4 3.1 9.0 19 56
+ 0.664366 4 5 cbr 1000 ------- 4 3.1 9.0 19 56
r 0.664726 5 9 cbr 1000 ------- 4 3.1 9.0 5 22
- 0.668926 4 5 cbr 1000 ------- 3 3.0 8.0 14 31
r 0.671509 3 4 cbr 1000 ------- 3 3.0 8.0 25 57
+ 0.671509 4 5 cbr 1000 ------- 3 3.0 8.0 25 57
r 0.672286 4 5 tcp 1040 ------- 2 1.0 7.0 1 24
+ 0.672286 5 7 tcp 1040 ------- 2 1.0 7.0 1 24
- 0.672286 5 7 tcp 1040 ------- 2 1.0 7.0 1 24
+ 0.675 3 4 cbr 1000 ------- 4 3.1 9.0 21 62
- 0.675 3 4 cbr 1000 ------- 4 3.1 9.0 21 62
r 0.680459 0 4 tcp 1040 ------- 1 0.0 6.0 5 58
+ 0.680459 4 5 tcp 1040 ------- 1 0.0 6.0 5 58
r 0.680542 0 4 tcp 1040 ------- 1 0.0 6.0 6 59
+ 0.680542 4 5 tcp 1040 ------- 1 0.0 6.0 6 59
r 0.680726 5 8 cbr 1000 ------- 3 3.0 8.0 11 23
+ 0.682143 3 4 cbr 1000 ------- 3 3.0 8.0 27 63
- 0.682143 3 4 cbr 1000 ------- 3 3.0 8.0 27 63
r 0.682223 3 4 cbr 1000 ------- 4 3.1 9.0 20 60
+ 0.682223 4 5 cbr 1000 ------- 4 3.1 9.0 20 60
- 0.684926 4 5 cbr 1000 ------- 4 3.1 9.0 9 32
r 0.688926 4 5 tcp 1040 ------- 2 1.0 7.0 2 25
+ 0.688926 5 7 tcp 1040 ------- 2 1.0 7.0 2 25
- 0.688926 5 7 tcp 1040 ------- 2 1.0 7.0 2 25
r 0.689366 3 4 cbr 1000 ------- 3 3.0 8.0 26 61
+ 0.689366 4 5 cbr 1000 ------- 3 3.0 8.0 26 61
+ 0.692857 3 4 cbr 1000 ------- 4 3.1 9.0 22 64
- 0.692857 3 4 cbr 1000 ------- 4 3.1 9.0 22 64
r 0.697369 5 7 tcp 1040 ------- 2 1.0 7.0 1 24
+ 0.697369 7 5 ack 40 ------- 2 7.0 1.0 1 65
- 0.697369 7 5 ack 40 ------- 2 7.0 1.0 1 65
+ 0.7 3 4 cbr 1000 ------- 3 3.0 8.0 28 66
- 0.7 3 4 cbr 1000 ------- 3 3.0 8.0 28 66
r 0.70008 3 4 cbr 1000 ------- 4 3.1 9.0 21 62
+ 0.70008 4 5 cbr 1000 ------- 4 3.1 9.0 21 62
- 0.700926 4 5 cbr 1000 ------- 3 3.0 8.0 15 33
r 0.704926 4 5 cbr 1000 ------- 4 3.1 9.0 6 26
+ 0.704926 5 9 cbr 1000 ------- 4 3.1 9.0 6 26
- 0.704926 5 9 cbr 1000 ------- 4 3.1 9.0 6 26
r 0.707223 3 4 cbr 1000 ------- 3 3.0 8.0 27 63
+ 0.707223 4 5 cbr 1000 ------- 3 3.0 8.0 27 63
+ 0.710714 3 4 cbr 1000 ------- 4 3.1 9.0 23 67
- 0.710714 3 4 cbr 1000 ------- 4 3.1 9.0 23 67
r 0.714009 5 7 tcp 1040 ------- 2 1.0 7.0 2 25
+ 0.714009 7 5 ack 40 ------- 2 7.0 1.0 2 68
- 0.714009 7 5 ack 40 ------- 2 7.0 1.0 2 68
- 0.716926 4 5 cbr 1000 ------- 4 3.1 9.0 10 34
+ 0.717857 3 4 cbr 1000 ------- 3 3.0 8.0 29 69
- 0.717857 3 4 cbr 1000 ------- 3 3.0 8.0 29 69
r 0.717937 3 4 cbr 1000 ------- 4 3.1 9.0 22 64
+ 0.717937 4 5 cbr 1000 ------- 4 3.1 9.0 22 64
r 0.720926 4 5 cbr 1000 ------- 3 3.0 8.0 12 27
+ 0.720926 5 8 cbr 1000 ------- 3 3.0 8.0 12 27
- 0.720926 5 8 cbr 1000 ------- 3 3.0 8.0 12 27
r 0.722372 7 5 ack 40 ------- 2 7.0 1.0 1 65
+ 0.722372 5 4 ack 40 ------- 2 7.0 1.0 1 65
- 0.722372 5 4 ack 40 ------- 2 7.0 1.0 1 65
r 0.72508 3 4 cbr 1000 ------- 3 3.0 8.0 28 66
+ 0.72508 4 5 cbr 1000 ------- 3 3.0 8.0 28 66
+ 0.728571 3 4 cbr 1000 ------- 4 3.1 9.0 24 70
- 0.728571 3 4 cbr 1000 ------- 4 3.1 9.0 24 70
r 0.730006 5 9 cbr 1000 ------- 4 3.1 9.0 6 26
- 0.732926 4 5 cbr 1000 ------- 3 3.0 8.0 16 35
+ 0.735714 3 4 cbr 1000 ------- 3 3.0 8.0 30 71
- 0.735714 3 4 cbr 1000 ------- 3 3.0 8.0 30 71
r 0.735794 3 4 cbr 1000 ------- 4 3.1 9.0 23 67
+ 0.735794 4 5 cbr 1000 ------- 4 3.1 9.0 23 67
r 0.736926 4 5 cbr 1000 ------- 4 3.1 9.0 7 28
+ 0.736926 5 9 cbr 1000 ------- 4 3.1 9.0 7 28
- 0.736926 5 9 cbr 1000 ------- 4 3.1 9.0 7 28
r 0.739012 7 5 ack 40 ------- 2 7.0 1.0 2 68
+ 0.739012 5 4 ack 40 ------- 2 7.0 1.0 2 68
- 0.739012 5 4 ack 40 ------- 2 7.0 1.0 2 68
r 0.742937 3 4 cbr 1000 ------- 3 3.0 8.0 29 69
+ 0.742937 4 5 cbr 1000 ------- 3 3.0 8.0 29 69
r 0.746006 5 8 cbr 1000 ------- 3 3.0 8.0 12 27
+ 0.746429 3 4 cbr 1000 ------- 4 3.1 9.0 25 72
- 0.746429 3 4 cbr 1000 ------- 4 3.1 9.0 25 72
- 0.748926 4 5 cbr 1000 ------- 4 3.1 9.0 11 37
r 0.752926 4 5 cbr 1000 ------- 3 3.0 8.0 13 29
+ 0.752926 5 8 cbr 1000 ------- 3 3.0 8.0 13 29
- 0.752926 5 8 cbr 1000 ------- 3 3.0 8.0 13 29
+ 0.753571 3 4 cbr 1000 ------- 3 3.0 8.0 31 73
- 0.753571 3 4 cbr 1000 ------- 3 3.0 8.0 31 73
r 0.753651 3 4 cbr 1000 ------- 4 3.1 9.0 24 70
+ 0.753651 4 5 cbr 1000 ------- 4 3.1 9.0 24 70
r 0.760794 3 4 cbr 1000 ------- 3 3.0 8.0 30 71
+ 0.760794 4 5 cbr 1000 ------- 3 3.0 8.0 30 71
r 0.762006 5 9 cbr 1000 ------- 4 3.1 9.0 7 28
+ 0.764286 3 4 cbr 1000 ------- 4 3.1 9.0 26 74
- 0.764286 3 4 cbr 1000 ------- 4 3.1 9.0 26 74
- 0.764926 4 5 cbr 1000 ------- 3 3.0 8.0 17 38
r 0.768926 4 5 cbr 1000 ------- 4 3.1 9.0 8 30
+ 0.768926 5 9 cbr 1000 ------- 4 3.1 9.0 8 30
- 0.768926 5 9 cbr 1000 ------- 4 3.1 9.0 8 30
+ 0.771429 3 4 cbr 1000 ------- 3 3.0 8.0 32 75
- 0.771429 3 4 cbr 1000 ------- 3 3.0 8.0 32 75
r 0.771509 3 4 cbr 1000 ------- 4 3.1 9.0 25 72
+ 0.771509 4 5 cbr 1000 ------- 4 3.1 9.0 25 72
r 0.778006 5 8 cbr 1000 ------- 3 3.0 8.0 13 29
r 0.778651 3 4 cbr 1000 ------- 3 3.0 8.0 31 73
+ 0.778651 4 5 cbr 1000 ------- 3 3.0 8.0 31 73
- 0.780926 4 5 cbr 1000 ------- 4 3.1 9.0 12 40
+ 0.782143 3 4 cbr 1000 ------- 4 3.1 9.0 27 76
- 0.782143 3 4 cbr 1000 ------- 4 3.1 9.0 27 76
r 0.784926 4 5 cbr 1000 ------- 3 3.0 8.0 14 31
+ 0.784926 5 8 cbr 1000 ------- 3 3.0 8.0 14 31
- 0.784926 5 8 cbr 1000 ------- 3 3.0 8.0 14 31
+ 0.789286 3 4 cbr 1000 ------- 3 3.0 8.0 33 77
- 0.789286 3 4 cbr 1000 ------- 3 3.0 8.0 33 77
r 0.789366 3 4 cbr 1000 ------- 4 3.1 9.0 26 74
+ 0.789366 4 5 cbr 1000 ------- 4 3.1 9.0 26 74
r 0.794006 5 9 cbr 1000 ------- 4 3.1 9.0 8 30
r 0.796509 3 4 cbr 1000 ------- 3 3.0 8.0 32 75
+ 0.796509 4 5 cbr 1000 ------- 3 3.0 8.0 32 75
- 0.796926 4 5 cbr 1000 ------- 3 3.0 8.0 18 41
+ 0.8 3 4 cbr 1000 ------- 4 3.1 9.0 28 78
- 0.8 3 4 cbr 1000 ------- 4 3.1 9.0 28 78
r 0.800926 4 5 cbr 1000 ------- 4 3.1 9.0 9 32
+ 0.800926 5 9 cbr 1000 ------- 4 3.1 9.0 9 32
- 0.800926 5 9 cbr 1000 ------- 4 3.1 9.0 9 32
+ 0.807143 3 4 cbr 1000 ------- 3 3.0 8.0 34 79
- 0.807143 3 4 cbr 1000 ------- 3 3.0 8.0 34 79
r 0.807223 3 4 cbr 1000 ------- 4 3.1 9.0 27 76
+ 0.807223 4 5 cbr 1000 ------- 4 3.1 9.0 27 76
r 0.810006 5 8 cbr 1000 ------- 3 3.0 8.0 14 31
- 0.812926 4 5 cbr 1000 ------- 4 3.1 9.0 13 42
r 0.814366 3 4 cbr 1000 ------- 3 3.0 8.0 33 77
+ 0.814366 4 5 cbr 1000 ------- 3 3.0 8.0 33 77
r 0.816926 4 5 cbr 1000 ------- 3 3.0 8.0 15 33
+ 0.816926 5 8 cbr 1000 ------- 3 3.0 8.0 15 33
- 0.816926 5 8 cbr 1000 ------- 3 3.0 8.0 15 33
+ 0.817857 3 4 cbr 1000 ------- 4 3.1 9.0 29 80
- 0.817857 3 4 cbr 1000 ------- 4 3.1 9.0 29 80
r 0.823012 5 4 ack 40 ------- 2 7.0 1.0 1 65
+ 0.823012 4 1 ack 40 ------- 2 7.0 1.0 1 65
- 0.823012 4 1 ack 40 ------- 2 7.0 1.0 1 65
+ 0.825 3 4 cbr 1000 ------- 3 3.0 8.0 35 81
- 0.825 3 4 cbr 1000 ------- 3 3.0 8.0 35 81
r 0.82508 3 4 cbr 1000 ------- 4 3.1 9.0 28 78
+ 0.82508 4 5 cbr 1000 ------- 4 3.1 9.0 28 78
r 0.826006 5 9 cbr 1000 ------- 4 3.1 9.0 9 32
- 0.828926 4 5 cbr 1000 ------- 3 3.0 8.0 19 43
r 0.832223 3 4 cbr 1000 ------- 3 3.0 8.0 34 79
+ 0.832223 4 5 cbr 1000 ------- 3 3.0 8.0 34 79
r 0.832926 4 5 cbr 1000 ------- 4 3.1 9.0 10 34
+ 0.832926 5 9 cbr 1000 ------- 4 3.1 9.0 10 34
- 0.832926 5 9 cbr 1000 ------- 4 3.1 9.0 10 34
+ 0.835714 3 4 cbr 1000 ------- 4 3.1 9.0 30 82
- 0.835714 3 4 cbr 1000 ------- 4 3.1 9.0 30 82
r 0.839652 5 4 ack 40 ------- 2 7.0 1.0 2 68
+ 0.839652 4 1 ack 40 ------- 2 7.0 1.0 2 68
- 0.839652 4 1 ack 40 ------- 2 7.0 1.0 2 68
r 0.842006 5 8 cbr 1000 ------- 3 3.0 8.0 15 33
+ 0.842857 3 4 cbr 1000 ------- 3 3.0 8.0 36 83
- 0.842857 3 4 cbr 1000 ------- 3 3.0 8.0 36 83
r 0.842937 3 4 cbr 1000 ------- 4 3.1 9.0 29 80
+ 0.842937 4 5 cbr 1000 ------- 4 3.1 9.0 29 80
- 0.844926 4 5 cbr 1000 ------- 4 3.1 9.0 14 44
r 0.848015 4 1 ack 40 ------- 2 7.0 1.0 1 65
+ 0.848015 1 4 tcp 1040 ------- 2 1.0 7.0 3 84
- 0.848015 1 4 tcp 1040 ------- 2 1.0 7.0 3 84
+ 0.848015 1 4 tcp 1040 ------- 2 1.0 7.0 4 85
- 0.848099 1 4 tcp 1040 ------- 2 1.0 7.0 4 85
r 0.848926 4 5 cbr 1000 ------- 3 3.0 8.0 16 35
+ 0.848926 5 8 cbr 1000 ------- 3 3.0 8.0 16 35
- 0.848926 5 8 cbr 1000 ------- 3 3.0 8.0 16 35
r 0.85008 3 4 cbr 1000 ------- 3 3.0 8.0 35 81
+ 0.85008 4 5 cbr 1000 ------- 3 3.0 8.0 35 81
+ 0.853571 3 4 cbr 1000 ------- 4 3.1 9.0 31 86
- 0.853571 3 4 cbr 1000 ------- 4 3.1 9.0 31 86
r 0.858006 5 9 cbr 1000 ------- 4 3.1 9.0 10 34
+ 0.860714 3 4 cbr 1000 ------- 3 3.0 8.0 37 87
- 0.860714 3 4 cbr 1000 ------- 3 3.0 8.0 37 87
r 0.860794 3 4 cbr 1000 ------- 4 3.1 9.0 30 82
+ 0.860794 4 5 cbr 1000 ------- 4 3.1 9.0 30 82
- 0.860926 4 5 cbr 1000 ------- 3 3.0 8.0 20 45
r 0.864655 4 1 ack 40 ------- 2 7.0 1.0 2 68
+ 0.864655 1 4 tcp 1040 ------- 2 1.0 7.0 5 88
- 0.864655 1 4 tcp 1040 ------- 2 1.0 7.0 5 88
+ 0.864655 1 4 tcp 1040 ------- 2 1.0 7.0 6 89
- 0.864739 1 4 tcp 1040 ------- 2 1.0 7.0 6 89
r 0.864926 4 5 cbr 1000 ------- 4 3.1 9.0 11 37
+ 0.864926 5 9 cbr 1000 ------- 4 3.1 9.0 11 37
- 0.864926 5 9 cbr 1000 ------- 4 3.1 9.0 11 37
r 0.867937 3 4 cbr 1000 ------- 3 3.0 8.0 36 83
+ 0.867937 4 5 cbr 1000 ------- 3 3.0 8.0 36 83
+ 0.871429 3 4 cbr 1000 ------- 4 3.1 9.0 32 90
- 0.871429 3 4 cbr 1000 ------- 4 3.1 9.0 32 90
r 0.873099 1 4 tcp 1040 ------- 2 1.0 7.0 3 84
+ 0.873099 4 5 tcp 1040 ------- 2 1.0 7.0 3 84
r 0.873182 1 4 tcp 1040 ------- 2 1.0 7.0 4 85
+ 0.873182 4 5 tcp 1040 ------- 2 1.0 7.0 4 85
r 0.874006 5 8 cbr 1000 ------- 3 3.0 8.0 16 35
- 0.876926 4 5 cbr 1000 ------- 4 3.1 9.0 15 46
+ 0.878571 3 4 cbr 1000 ------- 3 3.0 8.0 38 91
- 0.878571 3 4 cbr 1000 ------- 3 3.0 8.0 38 91
r 0.878651 3 4 cbr 1000 ------- 4 3.1 9.0 31 86
+ 0.878651 4 5 cbr 1000 ------- 4 3.1 9.0 31 86
r 0.880926 4 5 cbr 1000 ------- 3 3.0 8.0 17 38
+ 0.880926 5 8 cbr 1000 ------- 3 3.0 8.0 17 38
- 0.880926 5 8 cbr 1000 ------- 3 3.0 8.0 17 38
r 0.885794 3 4 cbr 1000 ------- 3 3.0 8.0 37 87
+ 0.885794 4 5 cbr 1000 ------- 3 3.0 8.0 37 87
+ 0.889286 3 4 cbr 1000 ------- 4 3.1 9.0 33 92
- 0.889286 3 4 cbr 1000 ------- 4 3.1 9.0 33 92
r 0.889739 1 4 tcp 1040 ------- 2 1.0 7.0 5 88
+ 0.889739 4 5 tcp 1040 ------- 2 1.0 7.0 5 88
r 0.889822 1 4 tcp 1040 ------- 2 1.0 7.0 6 89
+ 0.889822 4 5 tcp 1040 ------- 2 1.0 7.0 6 89
r 0.890006 5 9 cbr 1000 ------- 4 3.1 9.0 11 37
- 0.892926 4 5 cbr 1000 ------- 3 3.0 8.0 21 47
+ 0.896429 3 4 cbr 1000 ------- 3 3.0 8.0 39 93
- 0.896429 3 4 cbr 1000 ------- 3 3.0 8.0 39 93
r 0.896509 3 4 cbr 1000 ------- 4 3.1 9.0 32 90
+ 0.896509 4 5 cbr 1000 ------- 4 3.1 9.0 32 90
r 0.896926 4 5 cbr 1000 ------- 4 3.1 9.0 12 40
+ 0.896926 5 9 cbr 1000 ------- 4 3.1 9.0 12 40
- 0.896926 5 9 cbr 1000 ------- 4 3.1 9.0 12 40
r 0.903651 3 4 cbr 1000 ------- 3 3.0 8.0 38 91
+ 0.903651 4 5 cbr 1000 ------- 3 3.0 8.0 38 91
r 0.906006 5 8 cbr 1000 ------- 3 3.0 8.0 17 38
+ 0.907143 3 4 cbr 1000 ------- 4 3.1 9.0 34 94
- 0.907143 3 4 cbr 1000 ------- 4 3.1 9.0 34 94
- 0.908926 4 5 cbr 1000 ------- 4 3.1 9.0 16 48
r 0.912926 4 5 cbr 1000 ------- 3 3.0 8.0 18 41
+ 0.912926 5 8 cbr 1000 ------- 3 3.0 8.0 18 41
- 0.912926 5 8 cbr 1000 ------- 3 3.0 8.0 18 41
+ 0.914286 3 4 cbr 1000 ------- 3 3.0 8.0 40 95
- 0.914286 3 4 cbr 1000 ------- 3 3.0 8.0 40 95
r 0.914366 3 4 cbr 1000 ------- 4 3.1 9.0 33 92
+ 0.914366 4 5 cbr 1000 ------- 4 3.1 9.0 33 92
r 0.921509 3 4 cbr 1000 ------- 3 3.0 8.0 39 93
+ 0.921509 4 5 cbr 1000 ------- 3 3.0 8.0 39 93
r 0.922006 5 9 cbr 1000 ------- 4 3.1 9.0 12 40
- 0.924926 4 5 cbr 1000 ------- 3 3.0 8.0 22 49
+ 0.925 3 4 cbr 1000 ------- 4 3.1 9.0 35 96
- 0.925 3 4 cbr 1000 ------- 4 3.1 9.0 35 96
r 0.928926 4 5 cbr 1000 ------- 4 3.1 9.0 13 42
+ 0.928926 5 9 cbr 1000 ------- 4 3.1 9.0 13 42
- 0.928926 5 9 cbr 1000 ------- 4 3.1 9.0 13 42
+ 0.932143 3 4 cbr 1000 ------- 3 3.0 8.0 41 97
- 0.932143 3 4 cbr 1000 ------- 3 3.0 8.0 41 97
r 0.932223 3 4 cbr 1000 ------- 4 3.1 9.0 34 94
+ 0.932223 4 5 cbr 1000 ------- 4 3.1 9.0 34 94
r 0.938006 5 8 cbr 1000 ------- 3 3.0 8.0 18 41
r 0.939366 3 4 cbr 1000 ------- 3 3.0 8.0 40 95
+ 0.939366 4 5 cbr 1000 ------- 3 3.0 8.0 40 95
- 0.940926 4 5 cbr 1000 ------- 4 3.1 9.0 17 50
+ 0.942857 3 4 cbr 1000 ------- 4 3.1 9.0 36 98
- 0.942857 3 4 cbr 1000 ------- 4 3.1 9.0 36 98
r 0.944926 4 5 cbr 1000 ------- 3 3.0 8.0 19 43
+ 0.944926 5 8 cbr 1000 ------- 3 3.0 8.0 19 43
- 0.944926 5 8 cbr 1000 ------- 3 3.0 8.0 19 43
+ 0.95 3 4 cbr 1000 ------- 3 3.0 8.0 42 99
- 0.95 3 4 cbr 1000 ------- 3 3.0 8.0 42 99
r 0.95008 3 4 cbr 1000 ------- 4 3.1 9.0 35 96
+ 0.95008 4 5 cbr 1000 ------- 4 3.1 9.0 35 96
r 0.954006 5 9 cbr 1000 ------- 4 3.1 9.0 13 42
- 0.956926 4 5 cbr 1000 ------- 3 3.0 8.0 23 51
r 0.957223 3 4 cbr 1000 ------- 3 3.0 8.0 41 97
+ 0.957223 4 5 cbr 1000 ------- 3 3.0 8.0 41 97
+ 0.960714 3 4 cbr 1000 ------- 4 3.1 9.0 37 100
- 0.960714 3 4 cbr 1000 ------- 4 3.1 9.0 37 100
r 0.960926 4 5 cbr 1000 ------- 4 3.1 9.0 14 44
+ 0.960926 5 9 cbr 1000 ------- 4 3.1 9.0 14 44
- 0.960926 5 9 cbr 1000 ------- 4 3.1 9.0 14 44
+ 0.967857 3 4 cbr 1000 ------- 3 3.0 8.0 43 101