+ 0 0 12 tcp 40 ------- 1 0.0 6.0 0 0
- 0 0 12 tcp 40 ------- 1 0.0 6.0 0 0
+ 0 1 12 tcp 40 ------- 2 1.0 7.0 0 1
- 0 1 12 tcp 40 ------- 2 1.0 7.0 0 1
+ 0 2 12 tcp 40 ------- 3 2.0 8.0 0 2
- 0 2 12 tcp 40 ------- 3 2.0 8.0 0 2
+ 0 3 12 tcp 40 ------- 4 3.0 9.0 0 3
- 0 3 12 tcp 40 ------- 4 3.0 9.0 0 3
+ 0 4 12 cbr 1000 ------- 5 4.0 10.0 0 4
- 0 4 12 cbr 1000 ------- 5 4.0 10.0 0 4
+ 0 5 12 cbr 1000 ------- 6 5.0 11.0 0 5
- 0 5 12 cbr 1000 ------- 6 5.0 11.0 0 5
+ 0.017857 4 12 cbr 1000 ------- 5 4.0 10.0 1 6
- 0.017857 4 12 cbr 1000 ------- 5 4.0 10.0 1 6
+ 0.017857 5 12 cbr 1000 ------- 6 5.0 11.0 1 7
- 0.017857 5 12 cbr 1000 ------- 6 5.0 11.0 1 7
r 0.020001 0 12 tcp 40 ------- 1 0.0 6.0 0 0
+ 0.020001 12 13 tcp 40 ------- 1 0.0 6.0 0 0
- 0.020001 12 13 tcp 40 ------- 1 0.0 6.0 0 0
r 0.020001 1 12 tcp 40 ------- 2 1.0 7.0 0 1
+ 0.020001 12 13 tcp 40 ------- 2 1.0 7.0 0 1
r 0.020001 2 12 tcp 40 ------- 3 2.0 8.0 0 2
+ 0.020001 12 13 tcp 40 ------- 3 2.0 8.0 0 2
r 0.020001 3 12 tcp 40 ------- 4 3.0 9.0 0 3
+ 0.020001 12 13 tcp 40 ------- 4 3.0 9.0 0 3
r 0.020027 4 12 cbr 1000 ------- 5 4.0 10.0 0 4
+ 0.020027 12 13 cbr 1000 ------- 5 4.0 10.0 0 4
d 0.020027 12 13 cbr 1000 ------- 5 4.0 10.0 0 4
r 0.020027 5 12 cbr 1000 ------- 6 5.0 11.0 0 5
+ 0.020027 12 13 cbr 1000 ------- 6 5.0 11.0 0 5
d 0.020027 12 13 cbr 1000 ------- 6 5.0 11.0 0 5
- 0.020401 12 13 tcp 40 ------- 2 1.0 7.0 0 1
- 0.020801 12 13 tcp 40 ------- 3 2.0 8.0 0 2
- 0.021201 12 13 tcp 40 ------- 4 3.0 9.0 0 3
r 0.030401 12 13 tcp 40 ------- 1 0.0 6.0 0 0
+ 0.030401 13 6 tcp 40 ------- 1 0.0 6.0 0 0
- 0.030401 13 6 tcp 40 ------- 1 0.0 6.0 0 0
r 0.030801 12 13 tcp 40 ------- 2 1.0 7.0 0 1
+ 0.030801 13 7 tcp 40 ------- 2 1.0 7.0 0 1
- 0.030801 13 7 tcp 40 ------- 2 1.0 7.0 0 1
r 0.031201 12 13 tcp 40 ------- 3 2.0 8.0 0 2
+ 0.031201 13 8 tcp 40 ------- 3 2.0 8.0 0 2
- 0.031201 13 8 tcp 40 ------- 3 2.0 8.0 0 2
r 0.031601 12 13 tcp 40 ------- 4 3.0 9.0 0 3
+ 0.031601 13 9 tcp 40 ------- 4 3.0 9.0 0 3
- 0.031601 13 9 tcp 40 ------- 4 3.0 9.0 0 3
+ 0.035714 4 12 cbr 1000 ------- 5 4.0 10.0 2 8
- 0.035714 4 12 cbr 1000 ------- 5 4.0 10.0 2 8
+ 0.035714 5 12 cbr 1000 ------- 6 5.0 11.0 2 9
- 0.035714 5 12 cbr 1000 ------- 6 5.0 11.0 2 9
r 0.037884 4 12 cbr 1000 ------- 5 4.0 10.0 1 6
+ 0.037884 12 13 cbr 1000 ------- 5 4.0 10.0 1 6
- 0.037884 12 13 cbr 1000 ------- 5 4.0 10.0 1 6
r 0.037884 5 12 cbr 1000 ------- 6 5.0 11.0 1 7
+ 0.037884 12 13 cbr 1000 ------- 6 5.0 11.0 1 7
- 0.047884 12 13 cbr 1000 ------- 6 5.0 11.0 1 7
r 0.050402 13 6 tcp 40 ------- 1 0.0 6.0 0 0
+ 0.050402 6 13 ack 40 ------- 1 6.0 0.0 0 10
- 0.050402 6 13 ack 40 ------- 1 6.0 0.0 0 10
r 0.050802 13 7 tcp 40 ------- 2 1.0 7.0 0 1
+ 0.050802 7 13 ack 40 ------- 2 7.0 1.0 0 11
- 0.050802 7 13 ack 40 ------- 2 7.0 1.0 0 11
r 0.051202 13 8 tcp 40 ------- 3 2.0 8.0 0 2
+ 0.051202 8 13 ack 40 ------- 3 8.0 2.0 0 12
- 0.051202 8 13 ack 40 ------- 3 8.0 2.0 0 12
r 0.051602 13 9 tcp 40 ------- 4 3.0 9.0 0 3
+ 0.051602 9 13 ack 40 ------- 4 9.0 3.0 0 13
- 0.051602 9 13 ack 40 ------- 4 9.0 3.0 0 13
+ 0.053571 4 12 cbr 1000 ------- 5 4.0 10.0 3 14
- 0.053571 4 12 cbr 1000 ------- 5 4.0 10.0 3 14
+ 0.053571 5 12 cbr 1000 ------- 6 5.0 11.0 3 15
- 0.053571 5 12 cbr 1000 ------- 6 5.0 11.0 3 15
r 0.055741 4 12 cbr 1000 ------- 5 4.0 10.0 2 8
+ 0.055741 12 13 cbr 1000 ------- 5 4.0 10.0 2 8
r 0.055741 5 12 cbr 1000 ------- 6 5.0 11.0 2 9
+ 0.055741 12 13 cbr 1000 ------- 6 5.0 11.0 2 9
r 0.057884 12 13 cbr 1000 ------- 5 4.0 10.0 1 6
+ 0.057884 13 10 cbr 1000 ------- 5 4.0 10.0 1 6
- 0.057884 13 10 cbr 1000 ------- 5 4.0 10.0 1 6
- 0.057884 12 13 cbr 1000 ------- 5 4.0 10.0 2 8
r 0.067884 12 13 cbr 1000 ------- 6 5.0 11.0 1 7
+ 0.067884 13 11 cbr 1000 ------- 6 5.0 11.0 1 7
- 0.067884 13 11 cbr 1000 ------- 6 5.0 11.0 1 7
- 0.067884 12 13 cbr 1000 ------- 6 5.0 11.0 2 9
r 0.070403 6 13 ack 40 ------- 1 6.0 0.0 0 10
+ 0.070403 13 12 ack 40 ------- 1 6.0 0.0 0 10
- 0.070403 13 12 ack 40 ------- 1 6.0 0.0 0 10
r 0.070803 7 13 ack 40 ------- 2 7.0 1.0 0 11
+ 0.070803 13 12 ack 40 ------- 2 7.0 1.0 0 11
- 0.070803 13 12 ack 40 ------- 2 7.0 1.0 0 11
r 0.071203 8 13 ack 40 ------- 3 8.0 2.0 0 12
+ 0.071203 13 12 ack 40 ------- 3 8.0 2.0 0 12
- 0.071203 13 12 ack 40 ------- 3 8.0 2.0 0 12
+ 0.071429 4 12 cbr 1000 ------- 5 4.0 10.0 4 16
- 0.071429 4 12 cbr 1000 ------- 5 4.0 10.0 4 16
+ 0.071429 5 12 cbr 1000 ------- 6 5.0 11.0 4 17
- 0.071429 5 12 cbr 1000 ------- 6 5.0 11.0 4 17
r 0.071603 9 13 ack 40 ------- 4 9.0 3.0 0 13
+ 0.071603 13 12 ack 40 ------- 4 9.0 3.0 0 13
- 0.071603 13 12 ack 40 ------- 4 9.0 3.0 0 13
r 0.073598 4 12 cbr 1000 ------- 5 4.0 10.0 3 14
+ 0.073598 12 13 cbr 1000 ------- 5 4.0 10.0 3 14
r 0.073598 5 12 cbr 1000 ------- 6 5.0 11.0 3 15
+ 0.073598 12 13 cbr 1000 ------- 6 5.0 11.0 3 15
- 0.077884 12 13 cbr 1000 ------- 5 4.0 10.0 3 14
r 0.077884 12 13 cbr 1000 ------- 5 4.0 10.0 2 8
+ 0.077884 13 10 cbr 1000 ------- 5 4.0 10.0 2 8
- 0.077884 13 10 cbr 1000 ------- 5 4.0 10.0 2 8
r 0.07791 13 10 cbr 1000 ------- 5 4.0 10.0 1 6
r 0.080803 13 12 ack 40 ------- 1 6.0 0.0 0 10
+ 0.080803 12 0 ack 40 ------- 1 6.0 0.0 0 10
- 0.080803 12 0 ack 40 ------- 1 6.0 0.0 0 10
r 0.081203 13 12 ack 40 ------- 2 7.0 1.0 0 11
+ 0.081203 12 1 ack 40 ------- 2 7.0 1.0 0 11
- 0.081203 12 1 ack 40 ------- 2 7.0 1.0 0 11
r 0.081603 13 12 ack 40 ------- 3 8.0 2.0 0 12
+ 0.081603 12 2 ack 40 ------- 3 8.0 2.0 0 12
- 0.081603 12 2 ack 40 ------- 3 8.0 2.0 0 12
r 0.082003 13 12 ack 40 ------- 4 9.0 3.0 0 13
+ 0.082003 12 3 ack 40 ------- 4 9.0 3.0 0 13
- 0.082003 12 3 ack 40 ------- 4 9.0 3.0 0 13
- 0.087884 12 13 cbr 1000 ------- 6 5.0 11.0 3 15
r 0.087884 12 13 cbr 1000 ------- 6 5.0 11.0 2 9
+ 0.087884 13 11 cbr 1000 ------- 6 5.0 11.0 2 9
- 0.087884 13 11 cbr 1000 ------- 6 5.0 11.0 2 9
r 0.08791 13 11 cbr 1000 ------- 6 5.0 11.0 1 7
+ 0.089286 4 12 cbr 1000 ------- 5 4.0 10.0 5 18
- 0.089286 4 12 cbr 1000 ------- 5 4.0 10.0 5 18
+ 0.089286 5 12 cbr 1000 ------- 6 5.0 11.0 5 19
- 0.089286 5 12 cbr 1000 ------- 6 5.0 11.0 5 19
r 0.091455 4 12 cbr 1000 ------- 5 4.0 10.0 4 16
+ 0.091455 12 13 cbr 1000 ------- 5 4.0 10.0 4 16
r 0.091455 5 12 cbr 1000 ------- 6 5.0 11.0 4 17
+ 0.091455 12 13 cbr 1000 ------- 6 5.0 11.0 4 17
- 0.097884 12 13 cbr 1000 ------- 5 4.0 10.0 4 16
r 0.097884 12 13 cbr 1000 ------- 5 4.0 10.0 3 14
+ 0.097884 13 10 cbr 1000 ------- 5 4.0 10.0 3 14
- 0.097884 13 10 cbr 1000 ------- 5 4.0 10.0 3 14
r 0.09791 13 10 cbr 1000 ------- 5 4.0 10.0 2 8
r 0.100804 12 0 ack 40 ------- 1 6.0 0.0 0 10
+ 0.100804 0 12 tcp 1040 ------- 1 0.0 6.0 1 20
- 0.100804 0 12 tcp 1040 ------- 1 0.0 6.0 1 20
r 0.101204 12 1 ack 40 ------- 2 7.0 1.0 0 11
+ 0.101204 1 12 tcp 1040 ------- 2 1.0 7.0 1 21
- 0.101204 1 12 tcp 1040 ------- 2 1.0 7.0 1 21
r 0.101604 12 2 ack 40 ------- 3 8.0 2.0 0 12
+ 0.101604 2 12 tcp 1040 ------- 3 2.0 8.0 1 22
- 0.101604 2 12 tcp 1040 ------- 3 2.0 8.0 1 22
r 0.102004 12 3 ack 40 ------- 4 9.0 3.0 0 13
+ 0.102004 3 12 tcp 1040 ------- 4 3.0 9.0 1 23
- 0.102004 3 12 tcp 1040 ------- 4 3.0 9.0 1 23
+ 0.107143 4 12 cbr 1000 ------- 5 4.0 10.0 6 24
- 0.107143 4 12 cbr 1000 ------- 5 4.0 10.0 6 24
+ 0.107143 5 12 cbr 1000 ------- 6 5.0 11.0 6 25
- 0.107143 5 12 cbr 1000 ------- 6 5.0 11.0 6 25
- 0.107884 12 13 cbr 1000 ------- 6 5.0 11.0 4 17
r 0.107884 12 13 cbr 1000 ------- 6 5.0 11.0 3 15
+ 0.107884 13 11 cbr 1000 ------- 6 5.0 11.0 3 15
- 0.107884 13 11 cbr 1000 ------- 6 5.0 11.0 3 15
r 0.10791 13 11 cbr 1000 ------- 6 5.0 11.0 2 9
r 0.109312 4 12 cbr 1000 ------- 5 4.0 10.0 5 18
+ 0.109312 12 13 cbr 1000 ------- 5 4.0 10.0 5 18
r 0.109312 5 12 cbr 1000 ------- 6 5.0 11.0 5 19
+ 0.109312 12 13 cbr 1000 ------- 6 5.0 11.0 5 19
- 0.117884 12 13 cbr 1000 ------- 5 4.0 10.0 5 18
r 0.117884 12 13 cbr 1000 ------- 5 4.0 10.0 4 16
+ 0.117884 13 10 cbr 1000 ------- 5 4.0 10.0 4 16
- 0.117884 13 10 cbr 1000 ------- 5 4.0 10.0 4 16
r 0.11791 13 10 cbr 1000 ------- 5 4.0 10.0 3 14
r 0.120832 0 12 tcp 1040 ------- 1 0.0 6.0 1 20
+ 0.120832 12 13 tcp 1040 ------- 1 0.0 6.0 1 20
r 0.121232 1 12 tcp 1040 ------- 2 1.0 7.0 1 21
+ 0.121232 12 13 tcp 1040 ------- 2 1.0 7.0 1 21
r 0.121632 2 12 tcp 1040 ------- 3 2.0 8.0 1 22
+ 0.121632 12 13 tcp 1040 ------- 3 2.0 8.0 1 22
d 0.121632 12 13 tcp 1040 ------- 3 2.0 8.0 1 22
r 0.122032 3 12 tcp 1040 ------- 4 3.0 9.0 1 23
+ 0.122032 12 13 tcp 1040 ------- 4 3.0 9.0 1 23
d 0.122032 12 13 tcp 1040 ------- 4 3.0 9.0 1 23
+ 0.125 4 12 cbr 1000 ------- 5 4.0 10.0 7 26
- 0.125 4 12 cbr 1000 ------- 5 4.0 10.0 7 26
+ 0.125 5 12 cbr 1000 ------- 6 5.0 11.0 7 27
- 0.125 5 12 cbr 1000 ------- 6 5.0 11.0 7 27
r 0.12717 4 12 cbr 1000 ------- 5 4.0 10.0 6 24
+ 0.12717 12 13 cbr 1000 ------- 5 4.0 10.0 6 24
d 0.12717 12 13 cbr 1000 ------- 5 4.0 10.0 6 24
r 0.12717 5 12 cbr 1000 ------- 6 5.0 11.0 6 25
+ 0.12717 12 13 cbr 1000 ------- 6 5.0 11.0 6 25
d 0.12717 12 13 cbr 1000 ------- 6 5.0 11.0 6 25
r 0.127884 12 13 cbr 1000 ------- 6 5.0 11.0 4 17
+ 0.127884 13 11 cbr 1000 ------- 6 5.0 11.0 4 17
- 0.127884 13 11 cbr 1000 ------- 6 5.0 11.0 4 17
- 0.127884 12 13 cbr 1000 ------- 6 5.0 11.0 5 19
r 0.12791 13 11 cbr 1000 ------- 6 5.0 11.0 3 15
r 0.137884 12 13 cbr 1000 ------- 5 4.0 10.0 5 18
+ 0.137884 13 10 cbr 1000 ------- 5 4.0 10.0 5 18
- 0.137884 13 10 cbr 1000 ------- 5 4.0 10.0 5 18
- 0.137884 12 13 tcp 1040 ------- 1 0.0 6.0 1 20
r 0.13791 13 10 cbr 1000 ------- 5 4.0 10.0 4 16
+ 0.142857 4 12 cbr 1000 ------- 5 4.0 10.0 8 28
- 0.142857 4 12 cbr 1000 ------- 5 4.0 10.0 8 28
+ 0.142857 5 12 cbr 1000 ------- 6 5.0 11.0 8 29
- 0.142857 5 12 cbr 1000 ------- 6 5.0 11.0 8 29
r 0.145027 4 12 cbr 1000 ------- 5 4.0 10.0 7 26
+ 0.145027 12 13 cbr 1000 ------- 5 4.0 10.0 7 26
r 0.145027 5 12 cbr 1000 ------- 6 5.0 11.0 7 27
+ 0.145027 12 13 cbr 1000 ------- 6 5.0 11.0 7 27
r 0.147884 12 13 cbr 1000 ------- 6 5.0 11.0 5 19
+ 0.147884 13 11 cbr 1000 ------- 6 5.0 11.0 5 19
- 0.147884 13 11 cbr 1000 ------- 6 5.0 11.0 5 19
r 0.14791 13 11 cbr 1000 ------- 6 5.0 11.0 4 17
- 0.148284 12 13 tcp 1040 ------- 2 1.0 7.0 1 21
r 0.15791 13 10 cbr 1000 ------- 5 4.0 10.0 5 18
r 0.158284 12 13 tcp 1040 ------- 1 0.0 6.0 1 20
+ 0.158284 13 6 tcp 1040 ------- 1 0.0 6.0 1 20
- 0.158284 13 6 tcp 1040 ------- 1 0.0 6.0 1 20
- 0.158684 12 13 cbr 1000 ------- 5 4.0 10.0 7 26
+ 0.160714 4 12 cbr 1000 ------- 5 4.0 10.0 9 30
- 0.160714 4 12 cbr 1000 ------- 5 4.0 10.0 9 30
+ 0.160714 5 12 cbr 1000 ------- 6 5.0 11.0 9 31
- 0.160714 5 12 cbr 1000 ------- 6 5.0 11.0 9 31
r 0.162884 4 12 cbr 1000 ------- 5 4.0 10.0 8 28
+ 0.162884 12 13 cbr 1000 ------- 5 4.0 10.0 8 28
r 0.162884 5 12 cbr 1000 ------- 6 5.0 11.0 8 29
+ 0.162884 12 13 cbr 1000 ------- 6 5.0 11.0 8 29
r 0.16791 13 11 cbr 1000 ------- 6 5.0 11.0 5 19
r 0.168684 12 13 tcp 1040 ------- 2 1.0 7.0 1 21
+ 0.168684 13 7 tcp 1040 ------- 2 1.0 7.0 1 21
- 0.168684 13 7 tcp 1040 ------- 2 1.0 7.0 1 21
- 0.168684 12 13 cbr 1000 ------- 6 5.0 11.0 7 27
r 0.178312 13 6 tcp 1040 ------- 1 0.0 6.0 1 20
+ 0.178312 6 13 ack 40 ------- 1 6.0 0.0 1 32
- 0.178312 6 13 ack 40 ------- 1 6.0 0.0 1 32
+ 0.178571 4 12 cbr 1000 ------- 5 4.0 10.0 10 33
- 0.178571 4 12 cbr 1000 ------- 5 4.0 10.0 10 33
+ 0.178571 5 12 cbr 1000 ------- 6 5.0 11.0 10 34
- 0.178571 5 12 cbr 1000 ------- 6 5.0 11.0 10 34
r 0.178684 12 13 cbr 1000 ------- 5 4.0 10.0 7 26
+ 0.178684 13 10 cbr 1000 ------- 5 4.0 10.0 7 26
- 0.178684 13 10 cbr 1000 ------- 5 4.0 10.0 7 26
- 0.178684 12 13 cbr 1000 ------- 5 4.0 10.0 8 28
r 0.180741 4 12 cbr 1000 ------- 5 4.0 10.0 9 30
+ 0.180741 12 13 cbr 1000 ------- 5 4.0 10.0 9 30
r 0.180741 5 12 cbr 1000 ------- 6 5.0 11.0 9 31
+ 0.180741 12 13 cbr 1000 ------- 6 5.0 11.0 9 31
r 0.188684 12 13 cbr 1000 ------- 6 5.0 11.0 7 27
+ 0.188684 13 11 cbr 1000 ------- 6 5.0 11.0 7 27
- 0.188684 13 11 cbr 1000 ------- 6 5.0 11.0 7 27
- 0.188684 12 13 cbr 1000 ------- 6 5.0 11.0 8 29
r 0.188712 13 7 tcp 1040 ------- 2 1.0 7.0 1 21
+ 0.188712 7 13 ack 40 ------- 2 7.0 1.0 1 35
- 0.188712 7 13 ack 40 ------- 2 7.0 1.0 1 35
+ 0.196429 4 12 cbr 1000 ------- 5 4.0 10.0 11 36
- 0.196429 4 12 cbr 1000 ------- 5 4.0 10.0 11 36
+ 0.196429 5 12 cbr 1000 ------- 6 5.0 11.0 11 37
- 0.196429 5 12 cbr 1000 ------- 6 5.0 11.0 11 37
r 0.198313 6 13 ack 40 ------- 1 6.0 0.0 1 32
+ 0.198313 13 12 ack 40 ------- 1 6.0 0.0 1 32
- 0.198313 13 12 ack 40 ------- 1 6.0 0.0 1 32
r 0.198598 4 12 cbr 1000 ------- 5 4.0 10.0 10 33
+ 0.198598 12 13 cbr 1000 ------- 5 4.0 10.0 10 33
r 0.198598 5 12 cbr 1000 ------- 6 5.0 11.0 10 34
+ 0.198598 12 13 cbr 1000 ------- 6 5.0 11.0 10 34
d 0.198598 12 13 cbr 1000 ------- 6 5.0 11.0 10 34
r 0.198684 12 13 cbr 1000 ------- 5 4.0 10.0 8 28
+ 0.198684 13 10 cbr 1000 ------- 5 4.0 10.0 8 28
- 0.198684 13 10 cbr 1000 ------- 5 4.0 10.0 8 28
- 0.198684 12 13 cbr 1000 ------- 5 4.0 10.0 9 30
r 0.19871 13 10 cbr 1000 ------- 5 4.0 10.0 7 26
r 0.208684 12 13 cbr 1000 ------- 6 5.0 11.0 8 29
+ 0.208684 13 11 cbr 1000 ------- 6 5.0 11.0 8 29
- 0.208684 13 11 cbr 1000 ------- 6 5.0 11.0 8 29
- 0.208684 12 13 cbr 1000 ------- 6 5.0 11.0 9 31
r 0.20871 13 11 cbr 1000 ------- 6 5.0 11.0 7 27
r 0.208713 7 13 ack 40 ------- 2 7.0 1.0 1 35
+ 0.208713 13 12 ack 40 ------- 2 7.0 1.0 1 35
- 0.208713 13 12 ack 40 ------- 2 7.0 1.0 1 35
r 0.208713 13 12 ack 40 ------- 1 6.0 0.0 1 32
+ 0.208713 12 0 ack 40 ------- 1 6.0 0.0 1 32
- 0.208713 12 0 ack 40 ------- 1 6.0 0.0 1 32
+ 0.214286 4 12 cbr 1000 ------- 5 4.0 10.0 12 38
- 0.214286 4 12 cbr 1000 ------- 5 4.0 10.0 12 38
+ 0.214286 5 12 cbr 1000 ------- 6 5.0 11.0 12 39
- 0.214286 5 12 cbr 1000 ------- 6 5.0 11.0 12 39
r 0.216455 4 12 cbr 1000 ------- 5 4.0 10.0 11 36
+ 0.216455 12 13 cbr 1000 ------- 5 4.0 10.0 11 36
r 0.216455 5 12 cbr 1000 ------- 6 5.0 11.0 11 37
+ 0.216455 12 13 cbr 1000 ------- 6 5.0 11.0 11 37
r 0.218684 12 13 cbr 1000 ------- 5 4.0 10.0 9 30
+ 0.218684 13 10 cbr 1000 ------- 5 4.0 10.0 9 30
- 0.218684 13 10 cbr 1000 ------- 5 4.0 10.0 9 30
- 0.218684 12 13 cbr 1000 ------- 5 4.0 10.0 10 33
r 0.21871 13 10 cbr 1000 ------- 5 4.0 10.0 8 28
r 0.219113 13 12 ack 40 ------- 2 7.0 1.0 1 35
+ 0.219113 12 1 ack 40 ------- 2 7.0 1.0 1 35
- 0.219113 12 1 ack 40 ------- 2 7.0 1.0 1 35
r 0.228684 12 13 cbr 1000 ------- 6 5.0 11.0 9 31
+ 0.228684 13 11 cbr 1000 ------- 6 5.0 11.0 9 31
- 0.228684 13 11 cbr 1000 ------- 6 5.0 11.0 9 31
- 0.228684 12 13 cbr 1000 ------- 5 4.0 10.0 11 36
r 0.22871 13 11 cbr 1000 ------- 6 5.0 11.0 8 29
r 0.228714 12 0 ack 40 ------- 1 6.0 0.0 1 32
+ 0.228714 0 12 tcp 1040 ------- 1 0.0 6.0 2 40
- 0.228714 0 12 tcp 1040 ------- 1 0.0 6.0 2 40
+ 0.228714 0 12 tcp 1040 ------- 1 0.0 6.0 3 41
- 0.228741 0 12 tcp 1040 ------- 1 0.0 6.0 3 41
+ 0.232143 4 12 cbr 1000 ------- 5 4.0 10.0 13 42
- 0.232143 4 12 cbr 1000 ------- 5 4.0 10.0 13 42
+ 0.232143 5 12 cbr 1000 ------- 6 5.0 11.0 13 43
- 0.232143 5 12 cbr 1000 ------- 6 5.0 11.0 13 43
r 0.234312 4 12 cbr 1000 ------- 5 4.0 10.0 12 38
+ 0.234312 12 13 cbr 1000 ------- 5 4.0 10.0 12 38
r 0.234312 5 12 cbr 1000 ------- 6 5.0 11.0 12 39
+ 0.234312 12 13 cbr 1000 ------- 6 5.0 11.0 12 39
r 0.238684 12 13 cbr 1000 ------- 5 4.0 10.0 10 33
+ 0.238684 13 10 cbr 1000 ------- 5 4.0 10.0 10 33
- 0.238684 13 10 cbr 1000 ------- 5 4.0 10.0 10 33
- 0.238684 12 13 cbr 1000 ------- 6 5.0 11.0 11 37
r 0.23871 13 10 cbr 1000 ------- 5 4.0 10.0 9 30
r 0.239114 12 1 ack 40 ------- 2 7.0 1.0 1 35
+ 0.239114 1 12 tcp 1040 ------- 2 1.0 7.0 2 44
- 0.239114 1 12 tcp 1040 ------- 2 1.0 7.0 2 44
+ 0.239114 1 12 tcp 1040 ------- 2 1.0 7.0 3 45
- 0.239141 1 12 tcp 1040 ------- 2 1.0 7.0 3 45
r 0.248684 12 13 cbr 1000 ------- 5 4.0 10.0 11 36
+ 0.248684 13 10 cbr 1000 ------- 5 4.0 10.0 11 36
- 0.248684 13 10 cbr 1000 ------- 5 4.0 10.0 11 36
- 0.248684 12 13 cbr 1000 ------- 5 4.0 10.0 12 38
r 0.24871 13 11 cbr 1000 ------- 6 5.0 11.0 9 31
r 0.248741 0 12 tcp 1040 ------- 1 0.0 6.0 2 40
+ 0.248741 12 13 tcp 1040 ------- 1 0.0 6.0 2 40
r 0.248769 0 12 tcp 1040 ------- 1 0.0 6.0 3 41
+ 0.248769 12 13 tcp 1040 ------- 1 0.0 6.0 3 41
+ 0.25 4 12 cbr 1000 ------- 5 4.0 10.0 14 46
- 0.25 4 12 cbr 1000 ------- 5 4.0 10.0 14 46
+ 0.25 5 12 cbr 1000 ------- 6 5.0 11.0 14 47
- 0.25 5 12 cbr 1000 ------- 6 5.0 11.0 14 47
r 0.25217 4 12 cbr 1000 ------- 5 4.0 10.0 13 42
+ 0.25217 12 13 cbr 1000 ------- 5 4.0 10.0 13 42
d 0.25217 12 13 cbr 1000 ------- 5 4.0 10.0 13 42
r 0.25217 5 12 cbr 1000 ------- 6 5.0 11.0 13 43
+ 0.25217 12 13 cbr 1000 ------- 6 5.0 11.0 13 43
d 0.25217 12 13 cbr 1000 ------- 6 5.0 11.0 13 43
r 0.258684 12 13 cbr 1000 ------- 6 5.0 11.0 11 37
+ 0.258684 13 11 cbr 1000 ------- 6 5.0 11.0 11 37
- 0.258684 13 11 cbr 1000 ------- 6 5.0 11.0 11 37
- 0.258684 12 13 cbr 1000 ------- 6 5.0 11.0 12 39
r 0.25871 13 10 cbr 1000 ------- 5 4.0 10.0 10 33
r 0.259141 1 12 tcp 1040 ------- 2 1.0 7.0 2 44
+ 0.259141 12 13 tcp 1040 ------- 2 1.0 7.0 2 44
r 0.259169 1 12 tcp 1040 ------- 2 1.0 7.0 3 45
+ 0.259169 12 13 tcp 1040 ------- 2 1.0 7.0 3 45
d 0.259169 12 13 tcp 1040 ------- 2 1.0 7.0 3 45
+ 0.267857 4 12 cbr 1000 ------- 5 4.0 10.0 15 48
- 0.267857 4 12 cbr 1000 ------- 5 4.0 10.0 15 48
+ 0.267857 5 12 cbr 1000 ------- 6 5.0 11.0 15 49
- 0.267857 5 12 cbr 1000 ------- 6 5.0 11.0 15 49
r 0.268684 12 13 cbr 1000 ------- 5 4.0 10.0 12 38
+ 0.268684 13 10 cbr 1000 ------- 5 4.0 10.0 12 38
- 0.268684 13 10 cbr 1000 ------- 5 4.0 10.0 12 38
- 0.268684 12 13 tcp 1040 ------- 1 0.0 6.0 2 40
r 0.26871 13 10 cbr 1000 ------- 5 4.0 10.0 11 36
r 0.270027 4 12 cbr 1000 ------- 5 4.0 10.0 14 46
+ 0.270027 12 13 cbr 1000 ------- 5 4.0 10.0 14 46
r 0.270027 5 12 cbr 1000 ------- 6 5.0 11.0 14 47
+ 0.270027 12 13 cbr 1000 ------- 6 5.0 11.0 14 47
d 0.270027 12 13 cbr 1000 ------- 6 5.0 11.0 14 47
r 0.278684 12 13 cbr 1000 ------- 6 5.0 11.0 12 39
+ 0.278684 13 11 cbr 1000 ------- 6 5.0 11.0 12 39
- 0.278684 13 11 cbr 1000 ------- 6 5.0 11.0 12 39
r 0.27871 13 11 cbr 1000 ------- 6 5.0 11.0 11 37
- 0.279084 12 13 tcp 1040 ------- 1 0.0 6.0 3 41
+ 0.285714 4 12 cbr 1000 ------- 5 4.0 10.0 16 50
- 0.285714 4 12 cbr 1000 ------- 5 4.0 10.0 16 50
+ 0.285714 5 12 cbr 1000 ------- 6 5.0 11.0 16 51
- 0.285714 5 12 cbr 1000 ------- 6 5.0 11.0 16 51
r 0.287884 4 12 cbr 1000 ------- 5 4.0 10.0 15 48
+ 0.287884 12 13 cbr 1000 ------- 5 4.0 10.0 15 48
r 0.287884 5 12 cbr 1000 ------- 6 5.0 11.0 15 49
+ 0.287884 12 13 cbr 1000 ------- 6 5.0 11.0 15 49
d 0.287884 12 13 cbr 1000 ------- 6 5.0 11.0 15 49
r 0.28871 13 10 cbr 1000 ------- 5 4.0 10.0 12 38
r 0.289084 12 13 tcp 1040 ------- 1 0.0 6.0 2 40
+ 0.289084 13 6 tcp 1040 ------- 1 0.0 6.0 2 40
- 0.289084 13 6 tcp 1040 ------- 1 0.0 6.0 2 40
- 0.289484 12 13 tcp 1040 ------- 2 1.0 7.0 2 44
r 0.29871 13 11 cbr 1000 ------- 6 5.0 11.0 12 39
r 0.299484 12 13 tcp 1040 ------- 1 0.0 6.0 3 41
+ 0.299484 13 6 tcp 1040 ------- 1 0.0 6.0 3 41
- 0.299484 13 6 tcp 1040 ------- 1 0.0 6.0 3 41
- 0.299884 12 13 cbr 1000 ------- 5 4.0 10.0 14 46
+ 0.303571 4 12 cbr 1000 ------- 5 4.0 10.0 17 52
- 0.303571 4 12 cbr 1000 ------- 5 4.0 10.0 17 52
+ 0.303571 5 12 cbr 1000 ------- 6 5.0 11.0 17 53
- 0.303571 5 12 cbr 1000 ------- 6 5.0 11.0 17 53
r 0.305741 4 12 cbr 1000 ------- 5 4.0 10.0 16 50
+ 0.305741 12 13 cbr 1000 ------- 5 4.0 10.0 16 50
r 0.305741 5 12 cbr 1000 ------- 6 5.0 11.0 16 51
+ 0.305741 12 13 cbr 1000 ------- 6 5.0 11.0 16 51
r 0.309112 13 6 tcp 1040 ------- 1 0.0 6.0 2 40
+ 0.309112 6 13 ack 40 ------- 1 6.0 0.0 2 54
- 0.309112 6 13 ack 40 ------- 1 6.0 0.0 2 54
r 0.309884 12 13 tcp 1040 ------- 2 1.0 7.0 2 44
+ 0.309884 13 7 tcp 1040 ------- 2 1.0 7.0 2 44
- 0.309884 13 7 tcp 1040 ------- 2 1.0 7.0 2 44
- 0.309884 12 13 cbr 1000 ------- 5 4.0 10.0 15 48
r 0.319512 13 6 tcp 1040 ------- 1 0.0 6.0 3 41
+ 0.319512 6 13 ack 40 ------- 1 6.0 0.0 3 55
- 0.319512 6 13 ack 40 ------- 1 6.0 0.0 3 55
r 0.319884 12 13 cbr 1000 ------- 5 4.0 10.0 14 46
+ 0.319884 13 10 cbr 1000 ------- 5 4.0 10.0 14 46
- 0.319884 13 10 cbr 1000 ------- 5 4.0 10.0 14 46
- 0.319884 12 13 cbr 1000 ------- 5 4.0 10.0 16 50
+ 0.321429 4 12 cbr 1000 ------- 5 4.0 10.0 18 56
- 0.321429 4 12 cbr 1000 ------- 5 4.0 10.0 18 56
+ 0.321429 5 12 cbr 1000 ------- 6 5.0 11.0 18 57
- 0.321429 5 12 cbr 1000 ------- 6 5.0 11.0 18 57
r 0.323598 4 12 cbr 1000 ------- 5 4.0 10.0 17 52
+ 0.323598 12 13 cbr 1000 ------- 5 4.0 10.0 17 52
r 0.323598 5 12 cbr 1000 ------- 6 5.0 11.0 17 53
+ 0.323598 12 13 cbr 1000 ------- 6 5.0 11.0 17 53
r 0.329113 6 13 ack 40 ------- 1 6.0 0.0 2 54
+ 0.329113 13 12 ack 40 ------- 1 6.0 0.0 2 54
- 0.329113 13 12 ack 40 ------- 1 6.0 0.0 2 54
r 0.329884 12 13 cbr 1000 ------- 5 4.0 10.0 15 48
+ 0.329884 13 10 cbr 1000 ------- 5 4.0 10.0 15 48
- 0.329884 13 10 cbr 1000 ------- 5 4.0 10.0 15 48
- 0.329884 12 13 cbr 1000 ------- 6 5.0 11.0 16 51
r 0.329912 13 7 tcp 1040 ------- 2 1.0 7.0 2 44
+ 0.329912 7 13 ack 40 ------- 2 7.0 1.0 2 58
- 0.329912 7 13 ack 40 ------- 2 7.0 1.0 2 58
+ 0.339286 4 12 cbr 1000 ------- 5 4.0 10.0 19 59
- 0.339286 4 12 cbr 1000 ------- 5 4.0 10.0 19 59
+ 0.339286 5 12 cbr 1000 ------- 6 5.0 11.0 19 60
- 0.339286 5 12 cbr 1000 ------- 6 5.0 11.0 19 60
r 0.339513 6 13 ack 40 ------- 1 6.0 0.0 3 55
+ 0.339513 13 12 ack 40 ------- 1 6.0 0.0 3 55
- 0.339513 13 12 ack 40 ------- 1 6.0 0.0 3 55
r 0.339513 13 12 ack 40 ------- 1 6.0 0.0 2 54
+ 0.339513 12 0 ack 40 ------- 1 6.0 0.0 2 54
- 0.339513 12 0 ack 40 ------- 1 6.0 0.0 2 54
r 0.339884 12 13 cbr 1000 ------- 5 4.0 10.0 16 50
+ 0.339884 13 10 cbr 1000 ------- 5 4.0 10.0 16 50
- 0.339884 13 10 cbr 1000 ------- 5 4.0 10.0 16 50
- 0.339884 12 13 cbr 1000 ------- 5 4.0 10.0 17 52
r 0.33991 13 10 cbr 1000 ------- 5 4.0 10.0 14 46
r 0.341455 4 12 cbr 1000 ------- 5 4.0 10.0 18 56
+ 0.341455 12 13 cbr 1000 ------- 5 4.0 10.0 18 56
r 0.341455 5 12 cbr 1000 ------- 6 5.0 11.0 18 57
+ 0.341455 12 13 cbr 1000 ------- 6 5.0 11.0 18 57
r 0.349884 12 13 cbr 1000 ------- 6 5.0 11.0 16 51
+ 0.349884 13 11 cbr 1000 ------- 6 5.0 11.0 16 51
- 0.349884 13 11 cbr 1000 ------- 6 5.0 11.0 16 51
- 0.349884 12 13 cbr 1000 ------- 6 5.0 11.0 17 53
r 0.34991 13 10 cbr 1000 ------- 5 4.0 10.0 15 48
r 0.349913 13 12 ack 40 ------- 1 6.0 0.0 3 55
+ 0.349913 12 0 ack 40 ------- 1 6.0 0.0 3 55
- 0.349913 12 0 ack 40 ------- 1 6.0 0.0 3 55
r 0.349913 7 13 ack 40 ------- 2 7.0 1.0 2 58
+ 0.349913 13 12 ack 40 ------- 2 7.0 1.0 2 58
- 0.349913 13 12 ack 40 ------- 2 7.0 1.0 2 58
+ 0.357143 4 12 cbr 1000 ------- 5 4.0 10.0 20 61
- 0.357143 4 12 cbr 1000 ------- 5 4.0 10.0 20 61
+ 0.357143 5 12 cbr 1000 ------- 6 5.0 11.0 20 62
- 0.357143 5 12 cbr 1000 ------- 6 5.0 11.0 20 62
r 0.359312 4 12 cbr 1000 ------- 5 4.0 10.0 19 59
+ 0.359312 12 13 cbr 1000 ------- 5 4.0 10.0 19 59
r 0.359312 5 12 cbr 1000 ------- 6 5.0 11.0 19 60
+ 0.359312 12 13 cbr 1000 ------- 6 5.0 11.0 19 60
d 0.359312 12 13 cbr 1000 ------- 6 5.0 11.0 19 60
r 0.359514 12 0 ack 40 ------- 1 6.0 0.0 2 54
+ 0.359514 0 12 tcp 1040 ------- 1 0.0 6.0 4 63
- 0.359514 0 12 tcp 1040 ------- 1 0.0 6.0 4 63
+ 0.359514 0 12 tcp 1040 ------- 1 0.0 6.0 5 64
- 0.359541 0 12 tcp 1040 ------- 1 0.0 6.0 5 64
r 0.359884 12 13 cbr 1000 ------- 5 4.0 10.0 17 52
+ 0.359884 13 10 cbr 1000 ------- 5 4.0 10.0 17 52
- 0.359884 13 10 cbr 1000 ------- 5 4.0 10.0 17 52
- 0.359884 12 13 cbr 1000 ------- 5 4.0 10.0 18 56
r 0.35991 13 10 cbr 1000 ------- 5 4.0 10.0 16 50
r 0.360313 13 12 ack 40 ------- 2 7.0 1.0 2 58
+ 0.360313 12 1 ack 40 ------- 2 7.0 1.0 2 58
- 0.360313 12 1 ack 40 ------- 2 7.0 1.0 2 58
r 0.369884 12 13 cbr 1000 ------- 6 5.0 11.0 17 53
+ 0.369884 13 11 cbr 1000 ------- 6 5.0 11.0 17 53
- 0.369884 13 11 cbr 1000 ------- 6 5.0 11.0 17 53
- 0.369884 12 13 cbr 1000 ------- 6 5.0 11.0 18 57
r 0.36991 13 11 cbr 1000 ------- 6 5.0 11.0 16 51
r 0.369914 12 0 ack 40 ------- 1 6.0 0.0 3 55
+ 0.369914 0 12 tcp 1040 ------- 1 0.0 6.0 6 65
- 0.369914 0 12 tcp 1040 ------- 1 0.0 6.0 6 65
+ 0.369914 0 12 tcp 1040 ------- 1 0.0 6.0 7 66
- 0.369941 0 12 tcp 1040 ------- 1 0.0 6.0 7 66
+ 0.375 4 12 cbr 1000 ------- 5 4.0 10.0 21 67
- 0.375 4 12 cbr 1000 ------- 5 4.0 10.0 21 67
+ 0.375 5 12 cbr 1000 ------- 6 5.0 11.0 21 68
- 0.375 5 12 cbr 1000 ------- 6 5.0 11.0 21 68
r 0.37717 4 12 cbr 1000 ------- 5 4.0 10.0 20 61
+ 0.37717 12 13 cbr 1000 ------- 5 4.0 10.0 20 61
r 0.37717 5 12 cbr 1000 ------- 6 5.0 11.0 20 62
+ 0.37717 12 13 cbr 1000 ------- 6 5.0 11.0 20 62
r 0.379541 0 12 tcp 1040 ------- 1 0.0 6.0 4 63
+ 0.379541 12 13 tcp 1040 ------- 1 0.0 6.0 4 63
d 0.379541 12 13 tcp 1040 ------- 1 0.0 6.0 4 63
r 0.379569 0 12 tcp 1040 ------- 1 0.0 6.0 5 64
+ 0.379569 12 13 tcp 1040 ------- 1 0.0 6.0 5 64
d 0.379569 12 13 tcp 1040 ------- 1 0.0 6.0 5 64
r 0.379884 12 13 cbr 1000 ------- 5 4.0 10.0 18 56
+ 0.379884 13 10 cbr 1000 ------- 5 4.0 10.0 18 56
- 0.379884 13 10 cbr 1000 ------- 5 4.0 10.0 18 56
- 0.379884 12 13 cbr 1000 ------- 5 4.0 10.0 19 59
r 0.37991 13 10 cbr 1000 ------- 5 4.0 10.0 17 52
r 0.380314 12 1 ack 40 ------- 2 7.0 1.0 2 58
+ 0.380314 1 12 tcp 1040 ------- 2 1.0 7.0 4 69
- 0.380314 1 12 tcp 1040 ------- 2 1.0 7.0 4 69
+ 0.380314 1 12 tcp 1040 ------- 2 1.0 7.0 5 70
- 0.380341 1 12 tcp 1040 ------- 2 1.0 7.0 5 70
r 0.389884 12 13 cbr 1000 ------- 6 5.0 11.0 18 57
+ 0.389884 13 11 cbr 1000 ------- 6 5.0 11.0 18 57
- 0.389884 13 11 cbr 1000 ------- 6 5.0 11.0 18 57
- 0.389884 12 13 cbr 1000 ------- 5 4.0 10.0 20 61
r 0.38991 13 11 cbr 1000 ------- 6 5.0 11.0 17 53
r 0.389941 0 12 tcp 1040 ------- 1 0.0 6.0 6 65
+ 0.389941 12 13 tcp 1040 ------- 1 0.0 6.0 6 65
r 0.389969 0 12 tcp 1040 ------- 1 0.0 6.0 7 66
+ 0.389969 12 13 tcp 1040 ------- 1 0.0 6.0 7 66
+ 0.392857 4 12 cbr 1000 ------- 5 4.0 10.0 22 71
- 0.392857 4 12 cbr 1000 ------- 5 4.0 10.0 22 71
+ 0.392857 5 12 cbr 1000 ------- 6 5.0 11.0 22 72
- 0.392857 5 12 cbr 1000 ------- 6 5.0 11.0 22 72
r 0.395027 4 12 cbr 1000 ------- 5 4.0 10.0 21 67
+ 0.395027 12 13 cbr 1000 ------- 5 4.0 10.0 21 67
d 0.395027 12 13 cbr 1000 ------- 5 4.0 10.0 21 67
r 0.395027 5 12 cbr 1000 ------- 6 5.0 11.0 21 68
+ 0.395027 12 13 cbr 1000 ------- 6 5.0 11.0 21 68
d 0.395027 12 13 cbr 1000 ------- 6 5.0 11.0 21 68
r 0.399884 12 13 cbr 1000 ------- 5 4.0 10.0 19 59
+ 0.399884 13 10 cbr 1000 ------- 5 4.0 10.0 19 59
- 0.399884 13 10 cbr 1000 ------- 5 4.0 10.0 19 59
- 0.399884 12 13 cbr 1000 ------- 6 5.0 11.0 20 62
r 0.39991 13 10 cbr 1000 ------- 5 4.0 10.0 18 56
r 0.400341 1 12 tcp 1040 ------- 2 1.0 7.0 4 69
+ 0.400341 12 13 tcp 1040 ------- 2 1.0 7.0 4 69
r 0.400369 1 12 tcp 1040 ------- 2 1.0 7.0 5 70
+ 0.400369 12 13 tcp 1040 ------- 2 1.0 7.0 5 70
d 0.400369 12 13 tcp 1040 ------- 2 1.0 7.0 5 70
+ 0.401604 2 12 tcp 1040 ---A--- 3 2.0 8.0 1 73
- 0.401604 2 12 tcp 1040 ---A--- 3 2.0 8.0 1 73
r 0.409884 12 13 cbr 1000 ------- 5 4.0 10.0 20 61
+ 0.409884 13 10 cbr 1000 ------- 5 4.0 10.0 20 61
- 0.409884 13 10 cbr 1000 ------- 5 4.0 10.0 20 61
- 0.409884 12 13 tcp 1040 ------- 1 0.0 6.0 6 65
r 0.40991 13 11 cbr 1000 ------- 6 5.0 11.0 18 57
+ 0.410714 4 12 cbr 1000 ------- 5 4.0 10.0 23 74
- 0.410714 4 12 cbr 1000 ------- 5 4.0 10.0 23 74
+ 0.410714 5 12 cbr 1000 ------- 6 5.0 11.0 23 75
- 0.410714 5 12 cbr 1000 ------- 6 5.0 11.0 23 75
r 0.412884 4 12 cbr 1000 ------- 5 4.0 10.0 22 71
+ 0.412884 12 13 cbr 1000 ------- 5 4.0 10.0 22 71
r 0.412884 5 12 cbr 1000 ------- 6 5.0 11.0 22 72
+ 0.412884 12 13 cbr 1000 ------- 6 5.0 11.0 22 72
d 0.412884 12 13 cbr 1000 ------- 6 5.0 11.0 22 72
r 0.419884 12 13 cbr 1000 ------- 6 5.0 11.0 20 62
+ 0.419884 13 11 cbr 1000 ------- 6 5.0 11.0 20 62
- 0.419884 13 11 cbr 1000 ------- 6 5.0 11.0 20 62
r 0.41991 13 10 cbr 1000 ------- 5 4.0 10.0 19 59
- 0.420284 12 13 tcp 1040 ------- 1 0.0 6.0 7 66
r 0.421632 2 12 tcp 1040 ---A--- 3 2.0 8.0 1 73
+ 0.421632 12 13 tcp 1040 ---A--- 3 2.0 8.0 1 73
+ 0.428571 4 12 cbr 1000 ------- 5 4.0 10.0 24 76
- 0.428571 4 12 cbr 1000 ------- 5 4.0 10.0 24 76
+ 0.428571 5 12 cbr 1000 ------- 6 5.0 11.0 24 77
- 0.428571 5 12 cbr 1000 ------- 6 5.0 11.0 24 77
r 0.42991 13 10 cbr 1000 ------- 5 4.0 10.0 20 61
r 0.430284 12 13 tcp 1040 ------- 1 0.0 6.0 6 65
+ 0.430284 13 6 tcp 1040 ------- 1 0.0 6.0 6 65
- 0.430284 13 6 tcp 1040 ------- 1 0.0 6.0 6 65
- 0.430684 12 13 tcp 1040 ------- 2 1.0 7.0 4 69
r 0.430741 4 12 cbr 1000 ------- 5 4.0 10.0 23 74
+ 0.430741 12 13 cbr 1000 ------- 5 4.0 10.0 23 74
r 0.430741 5 12 cbr 1000 ------- 6 5.0 11.0 23 75
+ 0.430741 12 13 cbr 1000 ------- 6 5.0 11.0 23 75
d 0.430741 12 13 cbr 1000 ------- 6 5.0 11.0 23 75
+ 0.432004 3 12 tcp 1040 ---A--- 4 3.0 9.0 1 78
- 0.432004 3 12 tcp 1040 ---A--- 4 3.0 9.0 1 78
r 0.43991 13 11 cbr 1000 ------- 6 5.0 11.0 20 62
r 0.440684 12 13 tcp 1040 ------- 1 0.0 6.0 7 66
+ 0.440684 13 6 tcp 1040 ------- 1 0.0 6.0 7 66
- 0.440684 13 6 tcp 1040 ------- 1 0.0 6.0 7 66
- 0.441084 12 13 cbr 1000 ------- 5 4.0 10.0 22 71
+ 0.446429 4 12 cbr 1000 ------- 5 4.0 10.0 25 79
- 0.446429 4 12 cbr 1000 ------- 5 4.0 10.0 25 79
+ 0.446429 5 12 cbr 1000 ------- 6 5.0 11.0 25 80
- 0.446429 5 12 cbr 1000 ------- 6 5.0 11.0 25 80
r 0.448598 4 12 cbr 1000 ------- 5 4.0 10.0 24 76
+ 0.448598 12 13 cbr 1000 ------- 5 4.0 10.0 24 76
r 0.448598 5 12 cbr 1000 ------- 6 5.0 11.0 24 77
+ 0.448598 12 13 cbr 1000 ------- 6 5.0 11.0 24 77
d 0.448598 12 13 cbr 1000 ------- 6 5.0 11.0 24 77
r 0.450312 13 6 tcp 1040 ------- 1 0.0 6.0 6 65
+ 0.450312 6 13 ack 40 ------- 1 6.0 0.0 3 81
- 0.450312 6 13 ack 40 ------- 1 6.0 0.0 3 81
r 0.451084 12 13 tcp 1040 ------- 2 1.0 7.0 4 69
+ 0.451084 13 7 tcp 1040 ------- 2 1.0 7.0 4 69
- 0.451084 13 7 tcp 1040 ------- 2 1.0 7.0 4 69
- 0.451084 12 13 tcp 1040 ---A--- 3 2.0 8.0 1 73
r 0.452032 3 12 tcp 1040 ---A--- 4 3.0 9.0 1 78
+ 0.452032 12 13 tcp 1040 ---A--- 4 3.0 9.0 1 78
r 0.460712 13 6 tcp 1040 ------- 1 0.0 6.0 7 66
+ 0.460712 6 13 ack 40 ------- 1 6.0 0.0 3 82
- 0.460712 6 13 ack 40 ------- 1 6.0 0.0 3 82
r 0.461084 12 13 cbr 1000 ------- 5 4.0 10.0 22 71
+ 0.461084 13 10 cbr 1000 ------- 5 4.0 10.0 22 71
- 0.461084 13 10 cbr 1000 ------- 5 4.0 10.0 22 71
- 0.461484 12 13 cbr 1000 ------- 5 4.0 10.0 23 74
+ 0.464286 4 12 cbr 1000 ------- 5 4.0 10.0 26 83