+ 0.1 0 1 cbr 1000 ------- 1 0.0 1.0 0 0
- 0.1 0 1 cbr 1000 ------- 1 0.0 1.0 0 0
+ 0.117857 0 1 cbr 1000 ------- 1 0.0 1.0 1 1
- 0.117857 0 1 cbr 1000 ------- 1 0.0 1.0 1 1
r 0.118 0 1 cbr 1000 ------- 1 0.0 1.0 0 0
+ 0.135714 0 1 cbr 1000 ------- 1 0.0 1.0 2 2
- 0.135714 0 1 cbr 1000 ------- 1 0.0 1.0 2 2
r 0.135857 0 1 cbr 1000 ------- 1 0.0 1.0 1 1
+ 0.153571 0 1 cbr 1000 ------- 1 0.0 1.0 3 3
- 0.153571 0 1 cbr 1000 ------- 1 0.0 1.0 3 3
r 0.153714 0 1 cbr 1000 ------- 1 0.0 1.0 2 2
+ 0.171429 0 1 cbr 1000 ------- 1 0.0 1.0 4 4
- 0.171429 0 1 cbr 1000 ------- 1 0.0 1.0 4 4
r 0.171571 0 1 cbr 1000 ------- 1 0.0 1.0 3 3
+ 0.189286 0 1 cbr 1000 ------- 1 0.0 1.0 5 5
- 0.189286 0 1 cbr 1000 ------- 1 0.0 1.0 5 5
r 0.189429 0 1 cbr 1000 ------- 1 0.0 1.0 4 4
+ 0.207143 0 1 cbr 1000 ------- 1 0.0 1.0 6 6
- 0.207143 0 1 cbr 1000 ------- 1 0.0 1.0 6 6
r 0.207286 0 1 cbr 1000 ------- 1 0.0 1.0 5 5
+ 0.225 0 1 cbr 1000 ------- 1 0.0 1.0 7 7
- 0.225 0 1 cbr 1000 ------- 1 0.0 1.0 7 7
r 0.225143 0 1 cbr 1000 ------- 1 0.0 1.0 6 6
+ 0.242857 0 1 cbr 1000 ------- 1 0.0 1.0 8 8
- 0.242857 0 1 cbr 1000 ------- 1 0.0 1.0 8 8
r 0.243 0 1 cbr 1000 ------- 1 0.0 1.0 7 7
+ 0.260714 0 1 cbr 1000 ------- 1 0.0 1.0 9 9
- 0.260714 0 1 cbr 1000 ------- 1 0.0 1.0 9 9
r 0.260857 0 1 cbr 1000 ------- 1 0.0 1.0 8 8
+ 0.278571 0 1 cbr 1000 ------- 1 0.0 1.0 10 10
- 0.278571 0 1 cbr 1000 ------- 1 0.0 1.0 10 10
r 0.278714 0 1 cbr 1000 ------- 1 0.0 1.0 9 9
+ 0.296429 0 1 cbr 1000 ------- 1 0.0 1.0 11 11
- 0.296429 0 1 cbr 1000 ------- 1 0.0 1.0 11 11
r 0.296571 0 1 cbr 1000 ------- 1 0.0 1.0 10 10
+ 0.314286 0 1 cbr 1000 ------- 1 0.0 1.0 12 12
- 0.314286 0 1 cbr 1000 ------- 1 0.0 1.0 12 12
r 0.314429 0 1 cbr 1000 ------- 1 0.0 1.0 11 11
+ 0.332143 0 1 cbr 1000 ------- 1 0.0 1.0 13 13
- 0.332143 0 1 cbr 1000 ------- 1 0.0 1.0 13 13
r 0.332286 0 1 cbr 1000 ------- 1 0.0 1.0 12 12
+ 0.35 0 1 cbr 1000 ------- 1 0.0 1.0 14 14
- 0.35 0 1 cbr 1000 ------- 1 0.0 1.0 14 14
r 0.350143 0 1 cbr 1000 ------- 1 0.0 1.0 13 13
+ 0.367857 0 1 cbr 1000 ------- 1 0.0 1.0 15 15
- 0.367857 0 1 cbr 1000 ------- 1 0.0 1.0 15 15
r 0.368 0 1 cbr 1000 ------- 1 0.0 1.0 14 14
+ 0.385714 0 1 cbr 1000 ------- 1 0.0 1.0 16 16
- 0.385714 0 1 cbr 1000 ------- 1 0.0 1.0 16 16
r 0.385857 0 1 cbr 1000 ------- 1 0.0 1.0 15 15
+ 0.403571 0 1 cbr 1000 ------- 1 0.0 1.0 17 17
- 0.403571 0 1 cbr 1000 ------- 1 0.0 1.0 17 17
r 0.403714 0 1 cbr 1000 ------- 1 0.0 1.0 16 16
+ 0.421429 0 1 cbr 1000 ------- 1 0.0 1.0 18 18
- 0.421429 0 1 cbr 1000 ------- 1 0.0 1.0 18 18
r 0.421571 0 1 cbr 1000 ------- 1 0.0 1.0 17 17
+ 0.439286 0 1 cbr 1000 ------- 1 0.0 1.0 19 19
- 0.439286 0 1 cbr 1000 ------- 1 0.0 1.0 19 19
r 0.439429 0 1 cbr 1000 ------- 1 0.0 1.0 18 18
+ 0.457143 0 1 cbr 1000 ------- 1 0.0 1.0 20 20
- 0.457143 0 1 cbr 1000 ------- 1 0.0 1.0 20 20
r 0.457286 0 1 cbr 1000 ------- 1 0.0 1.0 19 19
+ 0.475 0 1 cbr 1000 ------- 1 0.0 1.0 21 21
- 0.475 0 1 cbr 1000 ------- 1 0.0 1.0 21 21
r 0.475143 0 1 cbr 1000 ------- 1 0.0 1.0 20 20
+ 0.492857 0 1 cbr 1000 ------- 1 0.0 1.0 22 22
- 0.492857 0 1 cbr 1000 ------- 1 0.0 1.0 22 22
r 0.493 0 1 cbr 1000 ------- 1 0.0 1.0 21 21
+ 0.510714 0 1 cbr 1000 ------- 1 0.0 1.0 23 23
- 0.510714 0 1 cbr 1000 ------- 1 0.0 1.0 23 23
r 0.510857 0 1 cbr 1000 ------- 1 0.0 1.0 22 22
+ 0.528571 0 1 cbr 1000 ------- 1 0.0 1.0 24 24
- 0.528571 0 1 cbr 1000 ------- 1 0.0 1.0 24 24
r 0.528714 0 1 cbr 1000 ------- 1 0.0 1.0 23 23
+ 0.546429 0 1 cbr 1000 ------- 1 0.0 1.0 25 25
- 0.546429 0 1 cbr 1000 ------- 1 0.0 1.0 25 25
r 0.546571 0 1 cbr 1000 ------- 1 0.0 1.0 24 24
+ 0.564286 0 1 cbr 1000 ------- 1 0.0 1.0 26 26
- 0.564286 0 1 cbr 1000 ------- 1 0.0 1.0 26 26
r 0.564429 0 1 cbr 1000 ------- 1 0.0 1.0 25 25
+ 0.582143 0 1 cbr 1000 ------- 1 0.0 1.0 27 27
- 0.582143 0 1 cbr 1000 ------- 1 0.0 1.0 27 27
r 0.582286 0 1 cbr 1000 ------- 1 0.0 1.0 26 26
+ 0.6 0 1 cbr 1000 ------- 1 0.0 1.0 28 28
- 0.6 0 1 cbr 1000 ------- 1 0.0 1.0 28 28
r 0.600143 0 1 cbr 1000 ------- 1 0.0 1.0 27 27
+ 0.617857 0 1 cbr 1000 ------- 1 0.0 1.0 29 29
- 0.617857 0 1 cbr 1000 ------- 1 0.0 1.0 29 29
r 0.618 0 1 cbr 1000 ------- 1 0.0 1.0 28 28
+ 0.635714 0 1 cbr 1000 ------- 1 0.0 1.0 30 30
- 0.635714 0 1 cbr 1000 ------- 1 0.0 1.0 30 30
r 0.635857 0 1 cbr 1000 ------- 1 0.0 1.0 29 29
+ 0.653571 0 1 cbr 1000 ------- 1 0.0 1.0 31 31
- 0.653571 0 1 cbr 1000 ------- 1 0.0 1.0 31 31
r 0.653714 0 1 cbr 1000 ------- 1 0.0 1.0 30 30
+ 0.671429 0 1 cbr 1000 ------- 1 0.0 1.0 32 32
- 0.671429 0 1 cbr 1000 ------- 1 0.0 1.0 32 32
r 0.671571 0 1 cbr 1000 ------- 1 0.0 1.0 31 31
+ 0.689286 0 1 cbr 1000 ------- 1 0.0 1.0 33 33
- 0.689286 0 1 cbr 1000 ------- 1 0.0 1.0 33 33
r 0.689429 0 1 cbr 1000 ------- 1 0.0 1.0 32 32
+ 0.707143 0 1 cbr 1000 ------- 1 0.0 1.0 34 34
- 0.707143 0 1 cbr 1000 ------- 1 0.0 1.0 34 34
r 0.707286 0 1 cbr 1000 ------- 1 0.0 1.0 33 33
+ 0.725 0 1 cbr 1000 ------- 1 0.0 1.0 35 35
- 0.725 0 1 cbr 1000 ------- 1 0.0 1.0 35 35
r 0.725143 0 1 cbr 1000 ------- 1 0.0 1.0 34 34
+ 0.742857 0 1 cbr 1000 ------- 1 0.0 1.0 36 36
- 0.742857 0 1 cbr 1000 ------- 1 0.0 1.0 36 36
r 0.743 0 1 cbr 1000 ------- 1 0.0 1.0 35 35
+ 0.760714 0 1 cbr 1000 ------- 1 0.0 1.0 37 37
- 0.760714 0 1 cbr 1000 ------- 1 0.0 1.0 37 37
r 0.760857 0 1 cbr 1000 ------- 1 0.0 1.0 36 36
+ 0.778571 0 1 cbr 1000 ------- 1 0.0 1.0 38 38
- 0.778571 0 1 cbr 1000 ------- 1 0.0 1.0 38 38
r 0.778714 0 1 cbr 1000 ------- 1 0.0 1.0 37 37
+ 0.796429 0 1 cbr 1000 ------- 1 0.0 1.0 39 39
- 0.796429 0 1 cbr 1000 ------- 1 0.0 1.0 39 39
r 0.796571 0 1 cbr 1000 ------- 1 0.0 1.0 38 38
+ 0.814286 0 1 cbr 1000 ------- 1 0.0 1.0 40 40
- 0.814286 0 1 cbr 1000 ------- 1 0.0 1.0 40 40
r 0.814429 0 1 cbr 1000 ------- 1 0.0 1.0 39 39
+ 0.832143 0 1 cbr 1000 ------- 1 0.0 1.0 41 41
- 0.832143 0 1 cbr 1000 ------- 1 0.0 1.0 41 41
r 0.832286 0 1 cbr 1000 ------- 1 0.0 1.0 40 40
+ 0.85 0 1 cbr 1000 ------- 1 0.0 1.0 42 42
- 0.85 0 1 cbr 1000 ------- 1 0.0 1.0 42 42
r 0.850143 0 1 cbr 1000 ------- 1 0.0 1.0 41 41
+ 0.867857 0 1 cbr 1000 ------- 1 0.0 1.0 43 43
- 0.867857 0 1 cbr 1000 ------- 1 0.0 1.0 43 43
r 0.868 0 1 cbr 1000 ------- 1 0.0 1.0 42 42
+ 0.885714 0 1 cbr 1000 ------- 1 0.0 1.0 44 44
- 0.885714 0 1 cbr 1000 ------- 1 0.0 1.0 44 44
r 0.885857 0 1 cbr 1000 ------- 1 0.0 1.0 43 43
+ 0.903571 0 1 cbr 1000 ------- 1 0.0 1.0 45 45
- 0.903571 0 1 cbr 1000 ------- 1 0.0 1.0 45 45
r 0.903714 0 1 cbr 1000 ------- 1 0.0 1.0 44 44
+ 0.921429 0 1 cbr 1000 ------- 1 0.0 1.0 46 46
- 0.921429 0 1 cbr 1000 ------- 1 0.0 1.0 46 46
r 0.921571 0 1 cbr 1000 ------- 1 0.0 1.0 45 45
+ 0.939286 0 1 cbr 1000 ------- 1 0.0 1.0 47 47
- 0.939286 0 1 cbr 1000 ------- 1 0.0 1.0 47 47
r 0.939429 0 1 cbr 1000 ------- 1 0.0 1.0 46 46
+ 0.957143 0 1 cbr 1000 ------- 1 0.0 1.0 48 48
- 0.957143 0 1 cbr 1000 ------- 1 0.0 1.0 48 48
r 0.957286 0 1 cbr 1000 ------- 1 0.0 1.0 47 47
+ 0.975 0 1 cbr 1000 ------- 1 0.0 1.0 49 49
- 0.975 0 1 cbr 1000 ------- 1 0.0 1.0 49 49
r 0.975143 0 1 cbr 1000 ------- 1 0.0 1.0 48 48
+ 0.992857 0 1 cbr 1000 ------- 1 0.0 1.0 50 50
- 0.992857 0 1 cbr 1000 ------- 1 0.0 1.0 50 50
r 0.993 0 1 cbr 1000 ------- 1 0.0 1.0 49 49
+ 1.010714 0 1 cbr 1000 ------- 1 0.0 1.0 51 51
- 1.010714 0 1 cbr 1000 ------- 1 0.0 1.0 51 51
r 1.010857 0 1 cbr 1000 ------- 1 0.0 1.0 50 50
+ 1.028571 0 1 cbr 1000 ------- 1 0.0 1.0 52 52
- 1.028571 0 1 cbr 1000 ------- 1 0.0 1.0 52 52
r 1.028714 0 1 cbr 1000 ------- 1 0.0 1.0 51 51
+ 1.046429 0 1 cbr 1000 ------- 1 0.0 1.0 53 53
- 1.046429 0 1 cbr 1000 ------- 1 0.0 1.0 53 53
r 1.046571 0 1 cbr 1000 ------- 1 0.0 1.0 52 52
+ 1.064286 0 1 cbr 1000 ------- 1 0.0 1.0 54 54
- 1.064286 0 1 cbr 1000 ------- 1 0.0 1.0 54 54
r 1.064429 0 1 cbr 1000 ------- 1 0.0 1.0 53 53
+ 1.082143 0 1 cbr 1000 ------- 1 0.0 1.0 55 55
- 1.082143 0 1 cbr 1000 ------- 1 0.0 1.0 55 55
r 1.082286 0 1 cbr 1000 ------- 1 0.0 1.0 54 54
+ 1.1 0 1 cbr 1000 ------- 1 0.0 1.0 56 56
- 1.1 0 1 cbr 1000 ------- 1 0.0 1.0 56 56
r 1.100143 0 1 cbr 1000 ------- 1 0.0 1.0 55 55
+ 1.117857 0 1 cbr 1000 ------- 1 0.0 1.0 57 57
- 1.117857 0 1 cbr 1000 ------- 1 0.0 1.0 57 57
r 1.118 0 1 cbr 1000 ------- 1 0.0 1.0 56 56
+ 1.135714 0 1 cbr 1000 ------- 1 0.0 1.0 58 58
- 1.135714 0 1 cbr 1000 ------- 1 0.0 1.0 58 58
r 1.135857 0 1 cbr 1000 ------- 1 0.0 1.0 57 57
+ 1.153571 0 1 cbr 1000 ------- 1 0.0 1.0 59 59
- 1.153571 0 1 cbr 1000 ------- 1 0.0 1.0 59 59
r 1.153714 0 1 cbr 1000 ------- 1 0.0 1.0 58 58
+ 1.171429 0 1 cbr 1000 ------- 1 0.0 1.0 60 60
- 1.171429 0 1 cbr 1000 ------- 1 0.0 1.0 60 60
r 1.171571 0 1 cbr 1000 ------- 1 0.0 1.0 59 59
+ 1.189286 0 1 cbr 1000 ------- 1 0.0 1.0 61 61
- 1.189286 0 1 cbr 1000 ------- 1 0.0 1.0 61 61
r 1.189429 0 1 cbr 1000 ------- 1 0.0 1.0 60 60
+ 1.207143 0 1 cbr 1000 ------- 1 0.0 1.0 62 62
- 1.207143 0 1 cbr 1000 ------- 1 0.0 1.0 62 62
r 1.207286 0 1 cbr 1000 ------- 1 0.0 1.0 61 61
+ 1.225 0 1 cbr 1000 ------- 1 0.0 1.0 63 63
- 1.225 0 1 cbr 1000 ------- 1 0.0 1.0 63 63
r 1.225143 0 1 cbr 1000 ------- 1 0.0 1.0 62 62
+ 1.242857 0 1 cbr 1000 ------- 1 0.0 1.0 64 64
- 1.242857 0 1 cbr 1000 ------- 1 0.0 1.0 64 64
r 1.243 0 1 cbr 1000 ------- 1 0.0 1.0 63 63
+ 1.260714 0 1 cbr 1000 ------- 1 0.0 1.0 65 65
- 1.260714 0 1 cbr 1000 ------- 1 0.0 1.0 65 65
r 1.260857 0 1 cbr 1000 ------- 1 0.0 1.0 64 64
+ 1.278571 0 1 cbr 1000 ------- 1 0.0 1.0 66 66
- 1.278571 0 1 cbr 1000 ------- 1 0.0 1.0 66 66
r 1.278714 0 1 cbr 1000 ------- 1 0.0 1.0 65 65
+ 1.296429 0 1 cbr 1000 ------- 1 0.0 1.0 67 67
- 1.296429 0 1 cbr 1000 ------- 1 0.0 1.0 67 67
r 1.296571 0 1 cbr 1000 ------- 1 0.0 1.0 66 66
+ 1.314286 0 1 cbr 1000 ------- 1 0.0 1.0 68 68
- 1.314286 0 1 cbr 1000 ------- 1 0.0 1.0 68 68
r 1.314429 0 1 cbr 1000 ------- 1 0.0 1.0 67 67
+ 1.332143 0 1 cbr 1000 ------- 1 0.0 1.0 69 69
- 1.332143 0 1 cbr 1000 ------- 1 0.0 1.0 69 69
r 1.332286 0 1 cbr 1000 ------- 1 0.0 1.0 68 68
+ 1.35 0 1 cbr 1000 ------- 1 0.0 1.0 70 70
- 1.35 0 1 cbr 1000 ------- 1 0.0 1.0 70 70
r 1.350143 0 1 cbr 1000 ------- 1 0.0 1.0 69 69
+ 1.367857 0 1 cbr 1000 ------- 1 0.0 1.0 71 71
- 1.367857 0 1 cbr 1000 ------- 1 0.0 1.0 71 71
r 1.368 0 1 cbr 1000 ------- 1 0.0 1.0 70 70
+ 1.385714 0 1 cbr 1000 ------- 1 0.0 1.0 72 72
- 1.385714 0 1 cbr 1000 ------- 1 0.0 1.0 72 72
r 1.385857 0 1 cbr 1000 ------- 1 0.0 1.0 71 71
+ 1.403571 0 1 cbr 1000 ------- 1 0.0 1.0 73 73
- 1.403571 0 1 cbr 1000 ------- 1 0.0 1.0 73 73
r 1.403714 0 1 cbr 1000 ------- 1 0.0 1.0 72 72
+ 1.421429 0 1 cbr 1000 ------- 1 0.0 1.0 74 74
- 1.421429 0 1 cbr 1000 ------- 1 0.0 1.0 74 74
r 1.421571 0 1 cbr 1000 ------- 1 0.0 1.0 73 73
+ 1.439286 0 1 cbr 1000 ------- 1 0.0 1.0 75 75
- 1.439286 0 1 cbr 1000 ------- 1 0.0 1.0 75 75
r 1.439429 0 1 cbr 1000 ------- 1 0.0 1.0 74 74
+ 1.457143 0 1 cbr 1000 ------- 1 0.0 1.0 76 76
- 1.457143 0 1 cbr 1000 ------- 1 0.0 1.0 76 76
r 1.457286 0 1 cbr 1000 ------- 1 0.0 1.0 75 75
+ 1.475 0 1 cbr 1000 ------- 1 0.0 1.0 77 77
- 1.475 0 1 cbr 1000 ------- 1 0.0 1.0 77 77
r 1.475143 0 1 cbr 1000 ------- 1 0.0 1.0 76 76
+ 1.492857 0 1 cbr 1000 ------- 1 0.0 1.0 78 78
- 1.492857 0 1 cbr 1000 ------- 1 0.0 1.0 78 78
r 1.493 0 1 cbr 1000 ------- 1 0.0 1.0 77 77
+ 1.510714 0 1 cbr 1000 ------- 1 0.0 1.0 79 79
- 1.510714 0 1 cbr 1000 ------- 1 0.0 1.0 79 79
r 1.510857 0 1 cbr 1000 ------- 1 0.0 1.0 78 78
+ 1.528571 0 1 cbr 1000 ------- 1 0.0 1.0 80 80
- 1.528571 0 1 cbr 1000 ------- 1 0.0 1.0 80 80
r 1.528714 0 1 cbr 1000 ------- 1 0.0 1.0 79 79
+ 1.546429 0 1 cbr 1000 ------- 1 0.0 1.0 81 81
- 1.546429 0 1 cbr 1000 ------- 1 0.0 1.0 81 81
r 1.546571 0 1 cbr 1000 ------- 1 0.0 1.0 80 80
+ 1.564286 0 1 cbr 1000 ------- 1 0.0 1.0 82 82
- 1.564286 0 1 cbr 1000 ------- 1 0.0 1.0 82 82
r 1.564429 0 1 cbr 1000 ------- 1 0.0 1.0 81 81
+ 1.582143 0 1 cbr 1000 ------- 1 0.0 1.0 83 83
- 1.582143 0 1 cbr 1000 ------- 1 0.0 1.0 83 83
r 1.582286 0 1 cbr 1000 ------- 1 0.0 1.0 82 82
+ 1.6 0 1 cbr 1000 ------- 1 0.0 1.0 84 84
- 1.6 0 1 cbr 1000 ------- 1 0.0 1.0 84 84
r 1.600143 0 1 cbr 1000 ------- 1 0.0 1.0 83 83
+ 1.617857 0 1 cbr 1000 ------- 1 0.0 1.0 85 85
- 1.617857 0 1 cbr 1000 ------- 1 0.0 1.0 85 85
r 1.618 0 1 cbr 1000 ------- 1 0.0 1.0 84 84
+ 1.635714 0 1 cbr 1000 ------- 1 0.0 1.0 86 86
- 1.635714 0 1 cbr 1000 ------- 1 0.0 1.0 86 86
r 1.635857 0 1 cbr 1000 ------- 1 0.0 1.0 85 85
+ 1.653571 0 1 cbr 1000 ------- 1 0.0 1.0 87 87
- 1.653571 0 1 cbr 1000 ------- 1 0.0 1.0 87 87
r 1.653714 0 1 cbr 1000 ------- 1 0.0 1.0 86 86
+ 1.671429 0 1 cbr 1000 ------- 1 0.0 1.0 88 88
- 1.671429 0 1 cbr 1000 ------- 1 0.0 1.0 88 88
r 1.671571 0 1 cbr 1000 ------- 1 0.0 1.0 87 87
+ 1.689286 0 1 cbr 1000 ------- 1 0.0 1.0 89 89
- 1.689286 0 1 cbr 1000 ------- 1 0.0 1.0 89 89
r 1.689429 0 1 cbr 1000 ------- 1 0.0 1.0 88 88
+ 1.707143 0 1 cbr 1000 ------- 1 0.0 1.0 90 90
- 1.707143 0 1 cbr 1000 ------- 1 0.0 1.0 90 90
r 1.707286 0 1 cbr 1000 ------- 1 0.0 1.0 89 89
+ 1.725 0 1 cbr 1000 ------- 1 0.0 1.0 91 91
- 1.725 0 1 cbr 1000 ------- 1 0.0 1.0 91 91
r 1.725143 0 1 cbr 1000 ------- 1 0.0 1.0 90 90
+ 1.742857 0 1 cbr 1000 ------- 1 0.0 1.0 92 92
- 1.742857 0 1 cbr 1000 ------- 1 0.0 1.0 92 92
r 1.743 0 1 cbr 1000 ------- 1 0.0 1.0 91 91
+ 1.760714 0 1 cbr 1000 ------- 1 0.0 1.0 93 93
- 1.760714 0 1 cbr 1000 ------- 1 0.0 1.0 93 93
r 1.760857 0 1 cbr 1000 ------- 1 0.0 1.0 92 92
+ 1.778571 0 1 cbr 1000 ------- 1 0.0 1.0 94 94
- 1.778571 0 1 cbr 1000 ------- 1 0.0 1.0 94 94
r 1.778714 0 1 cbr 1000 ------- 1 0.0 1.0 93 93
+ 1.796429 0 1 cbr 1000 ------- 1 0.0 1.0 95 95
- 1.796429 0 1 cbr 1000 ------- 1 0.0 1.0 95 95
r 1.796571 0 1 cbr 1000 ------- 1 0.0 1.0 94 94
+ 1.814286 0 1 cbr 1000 ------- 1 0.0 1.0 96 96
- 1.814286 0 1 cbr 1000 ------- 1 0.0 1.0 96 96
r 1.814429 0 1 cbr 1000 ------- 1 0.0 1.0 95 95
+ 1.832143 0 1 cbr 1000 ------- 1 0.0 1.0 97 97
- 1.832143 0 1 cbr 1000 ------- 1 0.0 1.0 97 97
r 1.832286 0 1 cbr 1000 ------- 1 0.0 1.0 96 96
+ 1.85 0 1 cbr 1000 ------- 1 0.0 1.0 98 98
- 1.85 0 1 cbr 1000 ------- 1 0.0 1.0 98 98
r 1.850143 0 1 cbr 1000 ------- 1 0.0 1.0 97 97
+ 1.867857 0 1 cbr 1000 ------- 1 0.0 1.0 99 99
- 1.867857 0 1 cbr 1000 ------- 1 0.0 1.0 99 99
r 1.868 0 1 cbr 1000 ------- 1 0.0 1.0 98 98
+ 1.885714 0 1 cbr 1000 ------- 1 0.0 1.0 100 100
- 1.885714 0 1 cbr 1000 ------- 1 0.0 1.0 100 100
r 1.885857 0 1 cbr 1000 ------- 1 0.0 1.0 99 99
+ 1.903571 0 1 cbr 1000 ------- 1 0.0 1.0 101 101
- 1.903571 0 1 cbr 1000 ------- 1 0.0 1.0 101 101
r 1.903714 0 1 cbr 1000 ------- 1 0.0 1.0 100 100
+ 1.921429 0 1 cbr 1000 ------- 1 0.0 1.0 102 102
- 1.921429 0 1 cbr 1000 ------- 1 0.0 1.0 102 102
r 1.921571 0 1 cbr 1000 ------- 1 0.0 1.0 101 101
+ 1.939286 0 1 cbr 1000 ------- 1 0.0 1.0 103 103
- 1.939286 0 1 cbr 1000 ------- 1 0.0 1.0 103 103
r 1.939429 0 1 cbr 1000 ------- 1 0.0 1.0 102 102
+ 1.957143 0 1 cbr 1000 ------- 1 0.0 1.0 104 104
- 1.957143 0 1 cbr 1000 ------- 1 0.0 1.0 104 104
r 1.957286 0 1 cbr 1000 ------- 1 0.0 1.0 103 103
+ 1.975 0 1 cbr 1000 ------- 1 0.0 1.0 105 105
- 1.975 0 1 cbr 1000 ------- 1 0.0 1.0 105 105
r 1.975143 0 1 cbr 1000 ------- 1 0.0 1.0 104 104
+ 1.992857 0 1 cbr 1000 ------- 1 0.0 1.0 106 106
- 1.992857 0 1 cbr 1000 ------- 1 0.0 1.0 106 106
r 1.993 0 1 cbr 1000 ------- 1 0.0 1.0 105 105
r 2.010857 0 1 cbr 1000 ------- 1 0.0 1.0 106 106
