+ 0 0 12 tcp 40 ------- 1 0.0 6.0 0 0
- 0 0 12 tcp 40 ------- 1 0.0 6.0 0 0
+ 0 1 12 tcp 40 ------- 2 1.0 7.0 0 1
- 0 1 12 tcp 40 ------- 2 1.0 7.0 0 1
+ 0 2 12 tcp 40 ------- 3 2.0 8.0 0 2
- 0 2 12 tcp 40 ------- 3 2.0 8.0 0 2
+ 0 3 12 tcp 40 ------- 4 3.0 9.0 0 3
- 0 3 12 tcp 40 ------- 4 3.0 9.0 0 3
+ 0 4 12 cbr 1000 ------- 5 4.0 10.0 0 4
- 0 4 12 cbr 1000 ------- 5 4.0 10.0 0 4
+ 0 5 12 cbr 1000 ------- 6 5.0 11.0 0 5
- 0 5 12 cbr 1000 ------- 6 5.0 11.0 0 5
+ 0.017857 4 12 cbr 1000 ------- 5 4.0 10.0 1 6
- 0.017857 4 12 cbr 1000 ------- 5 4.0 10.0 1 6
+ 0.017857 5 12 cbr 1000 ------- 6 5.0 11.0 1 7
- 0.017857 5 12 cbr 1000 ------- 6 5.0 11.0 1 7
r 0.020001 0 12 tcp 40 ------- 1 0.0 6.0 0 0
+ 0.020001 12 13 tcp 40 ------- 1 0.0 6.0 0 0
- 0.020001 12 13 tcp 40 ------- 1 0.0 6.0 0 0
r 0.020001 1 12 tcp 40 ------- 2 1.0 7.0 0 1
+ 0.020001 12 13 tcp 40 ------- 2 1.0 7.0 0 1
r 0.020001 2 12 tcp 40 ------- 3 2.0 8.0 0 2
+ 0.020001 12 13 tcp 40 ------- 3 2.0 8.0 0 2
r 0.020001 3 12 tcp 40 ------- 4 3.0 9.0 0 3
+ 0.020001 12 13 tcp 40 ------- 4 3.0 9.0 0 3
r 0.020027 4 12 cbr 1000 ------- 5 4.0 10.0 0 4
+ 0.020027 12 13 cbr 1000 ------- 5 4.0 10.0 0 4
d 0.020027 12 13 cbr 1000 ------- 5 4.0 10.0 0 4
r 0.020027 5 12 cbr 1000 ------- 6 5.0 11.0 0 5
+ 0.020027 12 13 cbr 1000 ------- 6 5.0 11.0 0 5
d 0.020027 12 13 cbr 1000 ------- 6 5.0 11.0 0 5
- 0.020321 12 13 tcp 40 ------- 2 1.0 7.0 0 1
- 0.020641 12 13 tcp 40 ------- 3 2.0 8.0 0 2
- 0.020961 12 13 tcp 40 ------- 4 3.0 9.0 0 3
r 0.030321 12 13 tcp 40 ------- 1 0.0 6.0 0 0
+ 0.030321 13 6 tcp 40 ------- 1 0.0 6.0 0 0
- 0.030321 13 6 tcp 40 ------- 1 0.0 6.0 0 0
r 0.030641 12 13 tcp 40 ------- 2 1.0 7.0 0 1
+ 0.030641 13 7 tcp 40 ------- 2 1.0 7.0 0 1
- 0.030641 13 7 tcp 40 ------- 2 1.0 7.0 0 1
r 0.030961 12 13 tcp 40 ------- 3 2.0 8.0 0 2
+ 0.030961 13 8 tcp 40 ------- 3 2.0 8.0 0 2
- 0.030961 13 8 tcp 40 ------- 3 2.0 8.0 0 2
r 0.031281 12 13 tcp 40 ------- 4 3.0 9.0 0 3
+ 0.031281 13 9 tcp 40 ------- 4 3.0 9.0 0 3
- 0.031281 13 9 tcp 40 ------- 4 3.0 9.0 0 3
+ 0.035714 4 12 cbr 1000 ------- 5 4.0 10.0 2 8
- 0.035714 4 12 cbr 1000 ------- 5 4.0 10.0 2 8
+ 0.035714 5 12 cbr 1000 ------- 6 5.0 11.0 2 9
- 0.035714 5 12 cbr 1000 ------- 6 5.0 11.0 2 9
r 0.037884 4 12 cbr 1000 ------- 5 4.0 10.0 1 6
+ 0.037884 12 13 cbr 1000 ------- 5 4.0 10.0 1 6
- 0.037884 12 13 cbr 1000 ------- 5 4.0 10.0 1 6
r 0.037884 5 12 cbr 1000 ------- 6 5.0 11.0 1 7
+ 0.037884 12 13 cbr 1000 ------- 6 5.0 11.0 1 7
- 0.045884 12 13 cbr 1000 ------- 6 5.0 11.0 1 7
r 0.050322 13 6 tcp 40 ------- 1 0.0 6.0 0 0
+ 0.050322 6 13 ack 40 ------- 1 6.0 0.0 0 10
- 0.050322 6 13 ack 40 ------- 1 6.0 0.0 0 10
r 0.050642 13 7 tcp 40 ------- 2 1.0 7.0 0 1
+ 0.050642 7 13 ack 40 ------- 2 7.0 1.0 0 11
- 0.050642 7 13 ack 40 ------- 2 7.0 1.0 0 11
r 0.050962 13 8 tcp 40 ------- 3 2.0 8.0 0 2
+ 0.050962 8 13 ack 40 ------- 3 8.0 2.0 0 12
- 0.050962 8 13 ack 40 ------- 3 8.0 2.0 0 12
r 0.051282 13 9 tcp 40 ------- 4 3.0 9.0 0 3
+ 0.051282 9 13 ack 40 ------- 4 9.0 3.0 0 13
- 0.051282 9 13 ack 40 ------- 4 9.0 3.0 0 13
+ 0.053571 4 12 cbr 1000 ------- 5 4.0 10.0 3 14
- 0.053571 4 12 cbr 1000 ------- 5 4.0 10.0 3 14
+ 0.053571 5 12 cbr 1000 ------- 6 5.0 11.0 3 15
- 0.053571 5 12 cbr 1000 ------- 6 5.0 11.0 3 15
r 0.055741 4 12 cbr 1000 ------- 5 4.0 10.0 2 8
+ 0.055741 12 13 cbr 1000 ------- 5 4.0 10.0 2 8
- 0.055741 12 13 cbr 1000 ------- 5 4.0 10.0 2 8
r 0.055741 5 12 cbr 1000 ------- 6 5.0 11.0 2 9
+ 0.055741 12 13 cbr 1000 ------- 6 5.0 11.0 2 9
r 0.055884 12 13 cbr 1000 ------- 5 4.0 10.0 1 6
+ 0.055884 13 10 cbr 1000 ------- 5 4.0 10.0 1 6
- 0.055884 13 10 cbr 1000 ------- 5 4.0 10.0 1 6
- 0.063741 12 13 cbr 1000 ------- 6 5.0 11.0 2 9
r 0.063884 12 13 cbr 1000 ------- 6 5.0 11.0 1 7
+ 0.063884 13 11 cbr 1000 ------- 6 5.0 11.0 1 7
- 0.063884 13 11 cbr 1000 ------- 6 5.0 11.0 1 7
r 0.070323 6 13 ack 40 ------- 1 6.0 0.0 0 10
+ 0.070323 13 12 ack 40 ------- 1 6.0 0.0 0 10
- 0.070323 13 12 ack 40 ------- 1 6.0 0.0 0 10
r 0.070643 7 13 ack 40 ------- 2 7.0 1.0 0 11
+ 0.070643 13 12 ack 40 ------- 2 7.0 1.0 0 11
- 0.070643 13 12 ack 40 ------- 2 7.0 1.0 0 11
r 0.070963 8 13 ack 40 ------- 3 8.0 2.0 0 12
+ 0.070963 13 12 ack 40 ------- 3 8.0 2.0 0 12
- 0.070963 13 12 ack 40 ------- 3 8.0 2.0 0 12
r 0.071283 9 13 ack 40 ------- 4 9.0 3.0 0 13
+ 0.071283 13 12 ack 40 ------- 4 9.0 3.0 0 13
- 0.071283 13 12 ack 40 ------- 4 9.0 3.0 0 13
+ 0.071429 4 12 cbr 1000 ------- 5 4.0 10.0 4 16
- 0.071429 4 12 cbr 1000 ------- 5 4.0 10.0 4 16
+ 0.071429 5 12 cbr 1000 ------- 6 5.0 11.0 4 17
- 0.071429 5 12 cbr 1000 ------- 6 5.0 11.0 4 17
r 0.073598 4 12 cbr 1000 ------- 5 4.0 10.0 3 14
+ 0.073598 12 13 cbr 1000 ------- 5 4.0 10.0 3 14
- 0.073598 12 13 cbr 1000 ------- 5 4.0 10.0 3 14
r 0.073598 5 12 cbr 1000 ------- 6 5.0 11.0 3 15
+ 0.073598 12 13 cbr 1000 ------- 6 5.0 11.0 3 15
r 0.073741 12 13 cbr 1000 ------- 5 4.0 10.0 2 8
+ 0.073741 13 10 cbr 1000 ------- 5 4.0 10.0 2 8
- 0.073741 13 10 cbr 1000 ------- 5 4.0 10.0 2 8
r 0.07591 13 10 cbr 1000 ------- 5 4.0 10.0 1 6
r 0.080643 13 12 ack 40 ------- 1 6.0 0.0 0 10
+ 0.080643 12 0 ack 40 ------- 1 6.0 0.0 0 10
- 0.080643 12 0 ack 40 ------- 1 6.0 0.0 0 10
r 0.080963 13 12 ack 40 ------- 2 7.0 1.0 0 11
+ 0.080963 12 1 ack 40 ------- 2 7.0 1.0 0 11
- 0.080963 12 1 ack 40 ------- 2 7.0 1.0 0 11
r 0.081283 13 12 ack 40 ------- 3 8.0 2.0 0 12
+ 0.081283 12 2 ack 40 ------- 3 8.0 2.0 0 12
- 0.081283 12 2 ack 40 ------- 3 8.0 2.0 0 12
- 0.081598 12 13 cbr 1000 ------- 6 5.0 11.0 3 15
r 0.081603 13 12 ack 40 ------- 4 9.0 3.0 0 13
+ 0.081603 12 3 ack 40 ------- 4 9.0 3.0 0 13
- 0.081603 12 3 ack 40 ------- 4 9.0 3.0 0 13
r 0.081741 12 13 cbr 1000 ------- 6 5.0 11.0 2 9
+ 0.081741 13 11 cbr 1000 ------- 6 5.0 11.0 2 9
- 0.081741 13 11 cbr 1000 ------- 6 5.0 11.0 2 9
r 0.08391 13 11 cbr 1000 ------- 6 5.0 11.0 1 7
+ 0.089286 4 12 cbr 1000 ------- 5 4.0 10.0 5 18
- 0.089286 4 12 cbr 1000 ------- 5 4.0 10.0 5 18
+ 0.089286 5 12 cbr 1000 ------- 6 5.0 11.0 5 19
- 0.089286 5 12 cbr 1000 ------- 6 5.0 11.0 5 19
r 0.091455 4 12 cbr 1000 ------- 5 4.0 10.0 4 16
+ 0.091455 12 13 cbr 1000 ------- 5 4.0 10.0 4 16
- 0.091455 12 13 cbr 1000 ------- 5 4.0 10.0 4 16
r 0.091455 5 12 cbr 1000 ------- 6 5.0 11.0 4 17
+ 0.091455 12 13 cbr 1000 ------- 6 5.0 11.0 4 17
r 0.091598 12 13 cbr 1000 ------- 5 4.0 10.0 3 14
+ 0.091598 13 10 cbr 1000 ------- 5 4.0 10.0 3 14
- 0.091598 13 10 cbr 1000 ------- 5 4.0 10.0 3 14
r 0.093768 13 10 cbr 1000 ------- 5 4.0 10.0 2 8
- 0.099455 12 13 cbr 1000 ------- 6 5.0 11.0 4 17
r 0.099598 12 13 cbr 1000 ------- 6 5.0 11.0 3 15
+ 0.099598 13 11 cbr 1000 ------- 6 5.0 11.0 3 15
- 0.099598 13 11 cbr 1000 ------- 6 5.0 11.0 3 15
r 0.100644 12 0 ack 40 ------- 1 6.0 0.0 0 10
+ 0.100644 0 12 tcp 1040 ------- 1 0.0 6.0 1 20
- 0.100644 0 12 tcp 1040 ------- 1 0.0 6.0 1 20
r 0.100964 12 1 ack 40 ------- 2 7.0 1.0 0 11
+ 0.100964 1 12 tcp 1040 ------- 2 1.0 7.0 1 21
- 0.100964 1 12 tcp 1040 ------- 2 1.0 7.0 1 21
r 0.101284 12 2 ack 40 ------- 3 8.0 2.0 0 12
+ 0.101284 2 12 tcp 1040 ------- 3 2.0 8.0 1 22
- 0.101284 2 12 tcp 1040 ------- 3 2.0 8.0 1 22
r 0.101604 12 3 ack 40 ------- 4 9.0 3.0 0 13
+ 0.101604 3 12 tcp 1040 ------- 4 3.0 9.0 1 23
- 0.101604 3 12 tcp 1040 ------- 4 3.0 9.0 1 23
r 0.101768 13 11 cbr 1000 ------- 6 5.0 11.0 2 9
+ 0.107143 4 12 cbr 1000 ------- 5 4.0 10.0 6 24
- 0.107143 4 12 cbr 1000 ------- 5 4.0 10.0 6 24
+ 0.107143 5 12 cbr 1000 ------- 6 5.0 11.0 6 25
- 0.107143 5 12 cbr 1000 ------- 6 5.0 11.0 6 25
r 0.109312 4 12 cbr 1000 ------- 5 4.0 10.0 5 18
+ 0.109312 12 13 cbr 1000 ------- 5 4.0 10.0 5 18
- 0.109312 12 13 cbr 1000 ------- 5 4.0 10.0 5 18
r 0.109312 5 12 cbr 1000 ------- 6 5.0 11.0 5 19
+ 0.109312 12 13 cbr 1000 ------- 6 5.0 11.0 5 19
r 0.109455 12 13 cbr 1000 ------- 5 4.0 10.0 4 16
+ 0.109455 13 10 cbr 1000 ------- 5 4.0 10.0 4 16
- 0.109455 13 10 cbr 1000 ------- 5 4.0 10.0 4 16
r 0.111625 13 10 cbr 1000 ------- 5 4.0 10.0 3 14
- 0.117312 12 13 cbr 1000 ------- 6 5.0 11.0 5 19
r 0.117455 12 13 cbr 1000 ------- 6 5.0 11.0 4 17
+ 0.117455 13 11 cbr 1000 ------- 6 5.0 11.0 4 17
- 0.117455 13 11 cbr 1000 ------- 6 5.0 11.0 4 17
r 0.119625 13 11 cbr 1000 ------- 6 5.0 11.0 3 15
r 0.120672 0 12 tcp 1040 ------- 1 0.0 6.0 1 20
+ 0.120672 12 13 tcp 1040 ------- 1 0.0 6.0 1 20
r 0.120992 1 12 tcp 1040 ------- 2 1.0 7.0 1 21
+ 0.120992 12 13 tcp 1040 ------- 2 1.0 7.0 1 21
r 0.121312 2 12 tcp 1040 ------- 3 2.0 8.0 1 22
+ 0.121312 12 13 tcp 1040 ------- 3 2.0 8.0 1 22
r 0.121632 3 12 tcp 1040 ------- 4 3.0 9.0 1 23
+ 0.121632 12 13 tcp 1040 ------- 4 3.0 9.0 1 23
d 0.121632 12 13 tcp 1040 ------- 4 3.0 9.0 1 23
+ 0.125 4 12 cbr 1000 ------- 5 4.0 10.0 7 26
- 0.125 4 12 cbr 1000 ------- 5 4.0 10.0 7 26
+ 0.125 5 12 cbr 1000 ------- 6 5.0 11.0 7 27
- 0.125 5 12 cbr 1000 ------- 6 5.0 11.0 7 27
- 0.125312 12 13 tcp 1040 ------- 1 0.0 6.0 1 20
r 0.12717 4 12 cbr 1000 ------- 5 4.0 10.0 6 24
+ 0.12717 12 13 cbr 1000 ------- 5 4.0 10.0 6 24
r 0.12717 5 12 cbr 1000 ------- 6 5.0 11.0 6 25
+ 0.12717 12 13 cbr 1000 ------- 6 5.0 11.0 6 25
d 0.12717 12 13 cbr 1000 ------- 6 5.0 11.0 6 25
r 0.127312 12 13 cbr 1000 ------- 5 4.0 10.0 5 18
+ 0.127312 13 10 cbr 1000 ------- 5 4.0 10.0 5 18
- 0.127312 13 10 cbr 1000 ------- 5 4.0 10.0 5 18
r 0.129482 13 10 cbr 1000 ------- 5 4.0 10.0 4 16
- 0.133632 12 13 tcp 1040 ------- 2 1.0 7.0 1 21
r 0.135312 12 13 cbr 1000 ------- 6 5.0 11.0 5 19
+ 0.135312 13 11 cbr 1000 ------- 6 5.0 11.0 5 19
- 0.135312 13 11 cbr 1000 ------- 6 5.0 11.0 5 19
r 0.137482 13 11 cbr 1000 ------- 6 5.0 11.0 4 17
- 0.141952 12 13 tcp 1040 ------- 3 2.0 8.0 1 22
+ 0.142857 4 12 cbr 1000 ------- 5 4.0 10.0 8 28
- 0.142857 4 12 cbr 1000 ------- 5 4.0 10.0 8 28
+ 0.142857 5 12 cbr 1000 ------- 6 5.0 11.0 8 29
- 0.142857 5 12 cbr 1000 ------- 6 5.0 11.0 8 29
r 0.143632 12 13 tcp 1040 ------- 1 0.0 6.0 1 20
+ 0.143632 13 6 tcp 1040 ------- 1 0.0 6.0 1 20
- 0.143632 13 6 tcp 1040 ------- 1 0.0 6.0 1 20
r 0.145027 4 12 cbr 1000 ------- 5 4.0 10.0 7 26
+ 0.145027 12 13 cbr 1000 ------- 5 4.0 10.0 7 26
r 0.145027 5 12 cbr 1000 ------- 6 5.0 11.0 7 27
+ 0.145027 12 13 cbr 1000 ------- 6 5.0 11.0 7 27
r 0.147339 13 10 cbr 1000 ------- 5 4.0 10.0 5 18
- 0.150272 12 13 cbr 1000 ------- 5 4.0 10.0 6 24
r 0.151952 12 13 tcp 1040 ------- 2 1.0 7.0 1 21
+ 0.151952 13 7 tcp 1040 ------- 2 1.0 7.0 1 21
- 0.151952 13 7 tcp 1040 ------- 2 1.0 7.0 1 21
r 0.155339 13 11 cbr 1000 ------- 6 5.0 11.0 5 19
- 0.158272 12 13 cbr 1000 ------- 5 4.0 10.0 7 26
r 0.160272 12 13 tcp 1040 ------- 3 2.0 8.0 1 22
+ 0.160272 13 8 tcp 1040 ------- 3 2.0 8.0 1 22
- 0.160272 13 8 tcp 1040 ------- 3 2.0 8.0 1 22
+ 0.160714 4 12 cbr 1000 ------- 5 4.0 10.0 9 30
- 0.160714 4 12 cbr 1000 ------- 5 4.0 10.0 9 30
+ 0.160714 5 12 cbr 1000 ------- 6 5.0 11.0 9 31
- 0.160714 5 12 cbr 1000 ------- 6 5.0 11.0 9 31
r 0.162884 4 12 cbr 1000 ------- 5 4.0 10.0 8 28
+ 0.162884 12 13 cbr 1000 ------- 5 4.0 10.0 8 28
r 0.162884 5 12 cbr 1000 ------- 6 5.0 11.0 8 29
+ 0.162884 12 13 cbr 1000 ------- 6 5.0 11.0 8 29
r 0.16366 13 6 tcp 1040 ------- 1 0.0 6.0 1 20
+ 0.16366 6 13 ack 40 ------- 1 6.0 0.0 1 32
- 0.16366 6 13 ack 40 ------- 1 6.0 0.0 1 32
- 0.166272 12 13 cbr 1000 ------- 6 5.0 11.0 7 27
r 0.168272 12 13 cbr 1000 ------- 5 4.0 10.0 6 24
+ 0.168272 13 10 cbr 1000 ------- 5 4.0 10.0 6 24
- 0.168272 13 10 cbr 1000 ------- 5 4.0 10.0 6 24
r 0.17198 13 7 tcp 1040 ------- 2 1.0 7.0 1 21
+ 0.17198 7 13 ack 40 ------- 2 7.0 1.0 1 33
- 0.17198 7 13 ack 40 ------- 2 7.0 1.0 1 33
- 0.174272 12 13 cbr 1000 ------- 5 4.0 10.0 8 28
r 0.176272 12 13 cbr 1000 ------- 5 4.0 10.0 7 26
+ 0.176272 13 10 cbr 1000 ------- 5 4.0 10.0 7 26
- 0.176272 13 10 cbr 1000 ------- 5 4.0 10.0 7 26
+ 0.178571 4 12 cbr 1000 ------- 5 4.0 10.0 10 34
- 0.178571 4 12 cbr 1000 ------- 5 4.0 10.0 10 34
+ 0.178571 5 12 cbr 1000 ------- 6 5.0 11.0 10 35
- 0.178571 5 12 cbr 1000 ------- 6 5.0 11.0 10 35
r 0.1803 13 8 tcp 1040 ------- 3 2.0 8.0 1 22
+ 0.1803 8 13 ack 40 ------- 3 8.0 2.0 1 36
- 0.1803 8 13 ack 40 ------- 3 8.0 2.0 1 36
r 0.180741 4 12 cbr 1000 ------- 5 4.0 10.0 9 30
+ 0.180741 12 13 cbr 1000 ------- 5 4.0 10.0 9 30
r 0.180741 5 12 cbr 1000 ------- 6 5.0 11.0 9 31
+ 0.180741 12 13 cbr 1000 ------- 6 5.0 11.0 9 31
- 0.182272 12 13 cbr 1000 ------- 6 5.0 11.0 8 29
r 0.183661 6 13 ack 40 ------- 1 6.0 0.0 1 32
+ 0.183661 13 12 ack 40 ------- 1 6.0 0.0 1 32
- 0.183661 13 12 ack 40 ------- 1 6.0 0.0 1 32
r 0.184272 12 13 cbr 1000 ------- 6 5.0 11.0 7 27
+ 0.184272 13 11 cbr 1000 ------- 6 5.0 11.0 7 27
- 0.184272 13 11 cbr 1000 ------- 6 5.0 11.0 7 27
r 0.188299 13 10 cbr 1000 ------- 5 4.0 10.0 6 24
- 0.190272 12 13 cbr 1000 ------- 5 4.0 10.0 9 30
r 0.191981 7 13 ack 40 ------- 2 7.0 1.0 1 33
+ 0.191981 13 12 ack 40 ------- 2 7.0 1.0 1 33
- 0.191981 13 12 ack 40 ------- 2 7.0 1.0 1 33
r 0.192272 12 13 cbr 1000 ------- 5 4.0 10.0 8 28
+ 0.192272 13 10 cbr 1000 ------- 5 4.0 10.0 8 28
- 0.192272 13 10 cbr 1000 ------- 5 4.0 10.0 8 28
r 0.193981 13 12 ack 40 ------- 1 6.0 0.0 1 32
+ 0.193981 12 0 ack 40 ------- 1 6.0 0.0 1 32
- 0.193981 12 0 ack 40 ------- 1 6.0 0.0 1 32
r 0.196299 13 10 cbr 1000 ------- 5 4.0 10.0 7 26
+ 0.196429 4 12 cbr 1000 ------- 5 4.0 10.0 11 37
- 0.196429 4 12 cbr 1000 ------- 5 4.0 10.0 11 37
+ 0.196429 5 12 cbr 1000 ------- 6 5.0 11.0 11 38
- 0.196429 5 12 cbr 1000 ------- 6 5.0 11.0 11 38
- 0.198272 12 13 cbr 1000 ------- 6 5.0 11.0 9 31
r 0.198598 4 12 cbr 1000 ------- 5 4.0 10.0 10 34
+ 0.198598 12 13 cbr 1000 ------- 5 4.0 10.0 10 34
r 0.198598 5 12 cbr 1000 ------- 6 5.0 11.0 10 35
+ 0.198598 12 13 cbr 1000 ------- 6 5.0 11.0 10 35
r 0.200272 12 13 cbr 1000 ------- 6 5.0 11.0 8 29
+ 0.200272 13 11 cbr 1000 ------- 6 5.0 11.0 8 29
- 0.200272 13 11 cbr 1000 ------- 6 5.0 11.0 8 29
r 0.200301 8 13 ack 40 ------- 3 8.0 2.0 1 36
+ 0.200301 13 12 ack 40 ------- 3 8.0 2.0 1 36
- 0.200301 13 12 ack 40 ------- 3 8.0 2.0 1 36
r 0.202301 13 12 ack 40 ------- 2 7.0 1.0 1 33
+ 0.202301 12 1 ack 40 ------- 2 7.0 1.0 1 33
- 0.202301 12 1 ack 40 ------- 2 7.0 1.0 1 33
r 0.204299 13 11 cbr 1000 ------- 6 5.0 11.0 7 27
- 0.206272 12 13 cbr 1000 ------- 5 4.0 10.0 10 34
r 0.208272 12 13 cbr 1000 ------- 5 4.0 10.0 9 30
+ 0.208272 13 10 cbr 1000 ------- 5 4.0 10.0 9 30
- 0.208272 13 10 cbr 1000 ------- 5 4.0 10.0 9 30
r 0.210621 13 12 ack 40 ------- 3 8.0 2.0 1 36
+ 0.210621 12 2 ack 40 ------- 3 8.0 2.0 1 36
- 0.210621 12 2 ack 40 ------- 3 8.0 2.0 1 36
r 0.212299 13 10 cbr 1000 ------- 5 4.0 10.0 8 28
r 0.213982 12 0 ack 40 ------- 1 6.0 0.0 1 32
+ 0.213982 0 12 tcp 1040 ------- 1 0.0 6.0 2 39
- 0.213982 0 12 tcp 1040 ------- 1 0.0 6.0 2 39
+ 0.213982 0 12 tcp 1040 ------- 1 0.0 6.0 3 40
- 0.21401 0 12 tcp 1040 ------- 1 0.0 6.0 3 40
- 0.214272 12 13 cbr 1000 ------- 6 5.0 11.0 10 35
+ 0.214286 4 12 cbr 1000 ------- 5 4.0 10.0 12 41
- 0.214286 4 12 cbr 1000 ------- 5 4.0 10.0 12 41
+ 0.214286 5 12 cbr 1000 ------- 6 5.0 11.0 12 42
- 0.214286 5 12 cbr 1000 ------- 6 5.0 11.0 12 42
r 0.216272 12 13 cbr 1000 ------- 6 5.0 11.0 9 31
+ 0.216272 13 11 cbr 1000 ------- 6 5.0 11.0 9 31
- 0.216272 13 11 cbr 1000 ------- 6 5.0 11.0 9 31
r 0.216455 4 12 cbr 1000 ------- 5 4.0 10.0 11 37
+ 0.216455 12 13 cbr 1000 ------- 5 4.0 10.0 11 37
r 0.216455 5 12 cbr 1000 ------- 6 5.0 11.0 11 38
+ 0.216455 12 13 cbr 1000 ------- 6 5.0 11.0 11 38
r 0.220299 13 11 cbr 1000 ------- 6 5.0 11.0 8 29
- 0.222272 12 13 cbr 1000 ------- 5 4.0 10.0 11 37
r 0.222302 12 1 ack 40 ------- 2 7.0 1.0 1 33
+ 0.222302 1 12 tcp 1040 ------- 2 1.0 7.0 2 43
- 0.222302 1 12 tcp 1040 ------- 2 1.0 7.0 2 43
+ 0.222302 1 12 tcp 1040 ------- 2 1.0 7.0 3 44
- 0.22233 1 12 tcp 1040 ------- 2 1.0 7.0 3 44
r 0.224272 12 13 cbr 1000 ------- 5 4.0 10.0 10 34
+ 0.224272 13 10 cbr 1000 ------- 5 4.0 10.0 10 34
- 0.224272 13 10 cbr 1000 ------- 5 4.0 10.0 10 34
r 0.228299 13 10 cbr 1000 ------- 5 4.0 10.0 9 30
- 0.230272 12 13 cbr 1000 ------- 6 5.0 11.0 11 38
r 0.230622 12 2 ack 40 ------- 3 8.0 2.0 1 36
+ 0.230622 2 12 tcp 1040 ------- 3 2.0 8.0 2 45
- 0.230622 2 12 tcp 1040 ------- 3 2.0 8.0 2 45
+ 0.230622 2 12 tcp 1040 ------- 3 2.0 8.0 3 46
- 0.23065 2 12 tcp 1040 ------- 3 2.0 8.0 3 46
+ 0.232143 4 12 cbr 1000 ------- 5 4.0 10.0 13 47
- 0.232143 4 12 cbr 1000 ------- 5 4.0 10.0 13 47
+ 0.232143 5 12 cbr 1000 ------- 6 5.0 11.0 13 48
- 0.232143 5 12 cbr 1000 ------- 6 5.0 11.0 13 48
r 0.232272 12 13 cbr 1000 ------- 6 5.0 11.0 10 35
+ 0.232272 13 11 cbr 1000 ------- 6 5.0 11.0 10 35
- 0.232272 13 11 cbr 1000 ------- 6 5.0 11.0 10 35
r 0.23401 0 12 tcp 1040 ------- 1 0.0 6.0 2 39
+ 0.23401 12 13 tcp 1040 ------- 1 0.0 6.0 2 39
r 0.234038 0 12 tcp 1040 ------- 1 0.0 6.0 3 40
+ 0.234038 12 13 tcp 1040 ------- 1 0.0 6.0 3 40
r 0.234312 4 12 cbr 1000 ------- 5 4.0 10.0 12 41
+ 0.234312 12 13 cbr 1000 ------- 5 4.0 10.0 12 41
r 0.234312 5 12 cbr 1000 ------- 6 5.0 11.0 12 42
+ 0.234312 12 13 cbr 1000 ------- 6 5.0 11.0 12 42
d 0.234312 12 13 cbr 1000 ------- 6 5.0 11.0 12 42
r 0.236299 13 11 cbr 1000 ------- 6 5.0 11.0 9 31
- 0.238272 12 13 tcp 1040 ------- 1 0.0 6.0 2 39
r 0.240272 12 13 cbr 1000 ------- 5 4.0 10.0 11 37
+ 0.240272 13 10 cbr 1000 ------- 5 4.0 10.0 11 37
- 0.240272 13 10 cbr 1000 ------- 5 4.0 10.0 11 37
r 0.24233 1 12 tcp 1040 ------- 2 1.0 7.0 2 43
+ 0.24233 12 13 tcp 1040 ------- 2 1.0 7.0 2 43
r 0.242358 1 12 tcp 1040 ------- 2 1.0 7.0 3 44
+ 0.242358 12 13 tcp 1040 ------- 2 1.0 7.0 3 44
d 0.242358 12 13 tcp 1040 ------- 2 1.0 7.0 3 44
r 0.244299 13 10 cbr 1000 ------- 5 4.0 10.0 10 34
- 0.246592 12 13 tcp 1040 ------- 1 0.0 6.0 3 40
r 0.248272 12 13 cbr 1000 ------- 6 5.0 11.0 11 38
+ 0.248272 13 11 cbr 1000 ------- 6 5.0 11.0 11 38
- 0.248272 13 11 cbr 1000 ------- 6 5.0 11.0 11 38
+ 0.25 4 12 cbr 1000 ------- 5 4.0 10.0 14 49
- 0.25 4 12 cbr 1000 ------- 5 4.0 10.0 14 49
+ 0.25 5 12 cbr 1000 ------- 6 5.0 11.0 14 50
- 0.25 5 12 cbr 1000 ------- 6 5.0 11.0 14 50
r 0.25065 2 12 tcp 1040 ------- 3 2.0 8.0 2 45
+ 0.25065 12 13 tcp 1040 ------- 3 2.0 8.0 2 45
r 0.250678 2 12 tcp 1040 ------- 3 2.0 8.0 3 46
+ 0.250678 12 13 tcp 1040 ------- 3 2.0 8.0 3 46
d 0.250678 12 13 tcp 1040 ------- 3 2.0 8.0 3 46
r 0.25217 4 12 cbr 1000 ------- 5 4.0 10.0 13 47
+ 0.25217 12 13 cbr 1000 ------- 5 4.0 10.0 13 47
d 0.25217 12 13 cbr 1000 ------- 5 4.0 10.0 13 47
r 0.25217 5 12 cbr 1000 ------- 6 5.0 11.0 13 48
+ 0.25217 12 13 cbr 1000 ------- 6 5.0 11.0 13 48
d 0.25217 12 13 cbr 1000 ------- 6 5.0 11.0 13 48
r 0.252299 13 11 cbr 1000 ------- 6 5.0 11.0 10 35
- 0.254912 12 13 cbr 1000 ------- 5 4.0 10.0 12 41
r 0.256592 12 13 tcp 1040 ------- 1 0.0 6.0 2 39
+ 0.256592 13 6 tcp 1040 ------- 1 0.0 6.0 2 39
- 0.256592 13 6 tcp 1040 ------- 1 0.0 6.0 2 39
r 0.260299 13 10 cbr 1000 ------- 5 4.0 10.0 11 37
- 0.262912 12 13 tcp 1040 ------- 2 1.0 7.0 2 43
r 0.264912 12 13 tcp 1040 ------- 1 0.0 6.0 3 40
+ 0.264912 13 6 tcp 1040 ------- 1 0.0 6.0 3 40
- 0.264912 13 6 tcp 1040 ------- 1 0.0 6.0 3 40
+ 0.267857 4 12 cbr 1000 ------- 5 4.0 10.0 15 51
- 0.267857 4 12 cbr 1000 ------- 5 4.0 10.0 15 51
+ 0.267857 5 12 cbr 1000 ------- 6 5.0 11.0 15 52
- 0.267857 5 12 cbr 1000 ------- 6 5.0 11.0 15 52
r 0.268299 13 11 cbr 1000 ------- 6 5.0 11.0 11 38
r 0.270027 4 12 cbr 1000 ------- 5 4.0 10.0 14 49
+ 0.270027 12 13 cbr 1000 ------- 5 4.0 10.0 14 49
r 0.270027 5 12 cbr 1000 ------- 6 5.0 11.0 14 50
+ 0.270027 12 13 cbr 1000 ------- 6 5.0 11.0 14 50
- 0.271232 12 13 tcp 1040 ------- 3 2.0 8.0 2 45
r 0.272912 12 13 cbr 1000 ------- 5 4.0 10.0 12 41
+ 0.272912 13 10 cbr 1000 ------- 5 4.0 10.0 12 41
- 0.272912 13 10 cbr 1000 ------- 5 4.0 10.0 12 41
r 0.27662 13 6 tcp 1040 ------- 1 0.0 6.0 2 39
+ 0.27662 6 13 ack 40 ------- 1 6.0 0.0 2 53
- 0.27662 6 13 ack 40 ------- 1 6.0 0.0 2 53
- 0.279552 12 13 cbr 1000 ------- 5 4.0 10.0 14 49
r 0.281232 12 13 tcp 1040 ------- 2 1.0 7.0 2 43
+ 0.281232 13 7 tcp 1040 ------- 2 1.0 7.0 2 43
- 0.281232 13 7 tcp 1040 ------- 2 1.0 7.0 2 43
r 0.28494 13 6 tcp 1040 ------- 1 0.0 6.0 3 40
+ 0.28494 6 13 ack 40 ------- 1 6.0 0.0 3 54
- 0.28494 6 13 ack 40 ------- 1 6.0 0.0 3 54
+ 0.285714 4 12 cbr 1000 ------- 5 4.0 10.0 16 55
- 0.285714 4 12 cbr 1000 ------- 5 4.0 10.0 16 55
+ 0.285714 5 12 cbr 1000 ------- 6 5.0 11.0 16 56
- 0.285714 5 12 cbr 1000 ------- 6 5.0 11.0 16 56
- 0.287552 12 13 cbr 1000 ------- 6 5.0 11.0 14 50
r 0.287884 4 12 cbr 1000 ------- 5 4.0 10.0 15 51
+ 0.287884 12 13 cbr 1000 ------- 5 4.0 10.0 15 51
r 0.287884 5 12 cbr 1000 ------- 6 5.0 11.0 15 52
+ 0.287884 12 13 cbr 1000 ------- 6 5.0 11.0 15 52
r 0.289552 12 13 tcp 1040 ------- 3 2.0 8.0 2 45
+ 0.289552 13 8 tcp 1040 ------- 3 2.0 8.0 2 45
- 0.289552 13 8 tcp 1040 ------- 3 2.0 8.0 2 45
r 0.292939 13 10 cbr 1000 ------- 5 4.0 10.0 12 41
- 0.295552 12 13 cbr 1000 ------- 5 4.0 10.0 15 51
r 0.296621 6 13 ack 40 ------- 1 6.0 0.0 2 53
+ 0.296621 13 12 ack 40 ------- 1 6.0 0.0 2 53
- 0.296621 13 12 ack 40 ------- 1 6.0 0.0 2 53
r 0.297552 12 13 cbr 1000 ------- 5 4.0 10.0 14 49
+ 0.297552 13 10 cbr 1000 ------- 5 4.0 10.0 14 49
- 0.297552 13 10 cbr 1000 ------- 5 4.0 10.0 14 49
r 0.30126 13 7 tcp 1040 ------- 2 1.0 7.0 2 43
+ 0.30126 7 13 ack 40 ------- 2 7.0 1.0 2 57
- 0.30126 7 13 ack 40 ------- 2 7.0 1.0 2 57
- 0.303552 12 13 cbr 1000 ------- 6 5.0 11.0 15 52
+ 0.303571 4 12 cbr 1000 ------- 5 4.0 10.0 17 58
- 0.303571 4 12 cbr 1000 ------- 5 4.0 10.0 17 58
+ 0.303571 5 12 cbr 1000 ------- 6 5.0 11.0 17 59
- 0.303571 5 12 cbr 1000 ------- 6 5.0 11.0 17 59
r 0.304941 6 13 ack 40 ------- 1 6.0 0.0 3 54
+ 0.304941 13 12 ack 40 ------- 1 6.0 0.0 3 54
- 0.304941 13 12 ack 40 ------- 1 6.0 0.0 3 54
r 0.305552 12 13 cbr 1000 ------- 6 5.0 11.0 14 50
+ 0.305552 13 11 cbr 1000 ------- 6 5.0 11.0 14 50
- 0.305552 13 11 cbr 1000 ------- 6 5.0 11.0 14 50
r 0.305741 4 12 cbr 1000 ------- 5 4.0 10.0 16 55
+ 0.305741 12 13 cbr 1000 ------- 5 4.0 10.0 16 55
r 0.305741 5 12 cbr 1000 ------- 6 5.0 11.0 16 56
+ 0.305741 12 13 cbr 1000 ------- 6 5.0 11.0 16 56
r 0.306941 13 12 ack 40 ------- 1 6.0 0.0 2 53
+ 0.306941 12 0 ack 40 ------- 1 6.0 0.0 2 53
- 0.306941 12 0 ack 40 ------- 1 6.0 0.0 2 53
r 0.30958 13 8 tcp 1040 ------- 3 2.0 8.0 2 45
+ 0.30958 8 13 ack 40 ------- 3 8.0 2.0 2 60
- 0.30958 8 13 ack 40 ------- 3 8.0 2.0 2 60
- 0.311552 12 13 cbr 1000 ------- 5 4.0 10.0 16 55
r 0.313552 12 13 cbr 1000 ------- 5 4.0 10.0 15 51
+ 0.313552 13 10 cbr 1000 ------- 5 4.0 10.0 15 51
- 0.313552 13 10 cbr 1000 ------- 5 4.0 10.0 15 51
r 0.315261 13 12 ack 40 ------- 1 6.0 0.0 3 54
+ 0.315261 12 0 ack 40 ------- 1 6.0 0.0 3 54
- 0.315261 12 0 ack 40 ------- 1 6.0 0.0 3 54
r 0.317579 13 10 cbr 1000 ------- 5 4.0 10.0 14 49
- 0.319552 12 13 cbr 1000 ------- 6 5.0 11.0 16 56
r 0.321261 7 13 ack 40 ------- 2 7.0 1.0 2 57
+ 0.321261 13 12 ack 40 ------- 2 7.0 1.0 2 57
- 0.321261 13 12 ack 40 ------- 2 7.0 1.0 2 57
+ 0.321429 4 12 cbr 1000 ------- 5 4.0 10.0 18 61
- 0.321429 4 12 cbr 1000 ------- 5 4.0 10.0 18 61
+ 0.321429 5 12 cbr 1000 ------- 6 5.0 11.0 18 62
- 0.321429 5 12 cbr 1000 ------- 6 5.0 11.0 18 62
r 0.321552 12 13 cbr 1000 ------- 6 5.0 11.0 15 52
+ 0.321552 13 11 cbr 1000 ------- 6 5.0 11.0 15 52
- 0.321552 13 11 cbr 1000 ------- 6 5.0 11.0 15 52
r 0.323598 4 12 cbr 1000 ------- 5 4.0 10.0 17 58
+ 0.323598 12 13 cbr 1000 ------- 5 4.0 10.0 17 58
r 0.323598 5 12 cbr 1000 ------- 6 5.0 11.0 17 59
+ 0.323598 12 13 cbr 1000 ------- 6 5.0 11.0 17 59
r 0.325579 13 11 cbr 1000 ------- 6 5.0 11.0 14 50
r 0.326942 12 0 ack 40 ------- 1 6.0 0.0 2 53
+ 0.326942 0 12 tcp 1040 ------- 1 0.0 6.0 4 63
- 0.326942 0 12 tcp 1040 ------- 1 0.0 6.0 4 63
+ 0.326942 0 12 tcp 1040 ------- 1 0.0 6.0 5 64
- 0.32697 0 12 tcp 1040 ------- 1 0.0 6.0 5 64
- 0.327552 12 13 cbr 1000 ------- 5 4.0 10.0 17 58
r 0.329552 12 13 cbr 1000 ------- 5 4.0 10.0 16 55
+ 0.329552 13 10 cbr 1000 ------- 5 4.0 10.0 16 55
- 0.329552 13 10 cbr 1000 ------- 5 4.0 10.0 16 55
r 0.329581 8 13 ack 40 ------- 3 8.0 2.0 2 60
+ 0.329581 13 12 ack 40 ------- 3 8.0 2.0 2 60
- 0.329581 13 12 ack 40 ------- 3 8.0 2.0 2 60
r 0.331581 13 12 ack 40 ------- 2 7.0 1.0 2 57
+ 0.331581 12 1 ack 40 ------- 2 7.0 1.0 2 57
- 0.331581 12 1 ack 40 ------- 2 7.0 1.0 2 57
r 0.333579 13 10 cbr 1000 ------- 5 4.0 10.0 15 51
r 0.335262 12 0 ack 40 ------- 1 6.0 0.0 3 54
+ 0.335262 0 12 tcp 1040 ------- 1 0.0 6.0 6 65
- 0.335262 0 12 tcp 1040 ------- 1 0.0 6.0 6 65
+ 0.335262 0 12 tcp 1040 ------- 1 0.0 6.0 7 66
- 0.33529 0 12 tcp 1040 ------- 1 0.0 6.0 7 66
- 0.335552 12 13 cbr 1000 ------- 6 5.0 11.0 17 59
r 0.337552 12 13 cbr 1000 ------- 6 5.0 11.0 16 56
+ 0.337552 13 11 cbr 1000 ------- 6 5.0 11.0 16 56
- 0.337552 13 11 cbr 1000 ------- 6 5.0 11.0 16 56
+ 0.339286 4 12 cbr 1000 ------- 5 4.0 10.0 19 67
- 0.339286 4 12 cbr 1000 ------- 5 4.0 10.0 19 67
+ 0.339286 5 12 cbr 1000 ------- 6 5.0 11.0 19 68
- 0.339286 5 12 cbr 1000 ------- 6 5.0 11.0 19 68
r 0.339901 13 12 ack 40 ------- 3 8.0 2.0 2 60
+ 0.339901 12 2 ack 40 ------- 3 8.0 2.0 2 60
- 0.339901 12 2 ack 40 ------- 3 8.0 2.0 2 60
r 0.341455 4 12 cbr 1000 ------- 5 4.0 10.0 18 61
+ 0.341455 12 13 cbr 1000 ------- 5 4.0 10.0 18 61
r 0.341455 5 12 cbr 1000 ------- 6 5.0 11.0 18 62
+ 0.341455 12 13 cbr 1000 ------- 6 5.0 11.0 18 62
r 0.341579 13 11 cbr 1000 ------- 6 5.0 11.0 15 52
- 0.343552 12 13 cbr 1000 ------- 5 4.0 10.0 18 61
r 0.345552 12 13 cbr 1000 ------- 5 4.0 10.0 17 58
+ 0.345552 13 10 cbr 1000 ------- 5 4.0 10.0 17 58
- 0.345552 13 10 cbr 1000 ------- 5 4.0 10.0 17 58
r 0.34697 0 12 tcp 1040 ------- 1 0.0 6.0 4 63
+ 0.34697 12 13 tcp 1040 ------- 1 0.0 6.0 4 63
r 0.346998 0 12 tcp 1040 ------- 1 0.0 6.0 5 64
+ 0.346998 12 13 tcp 1040 ------- 1 0.0 6.0 5 64
r 0.349579 13 10 cbr 1000 ------- 5 4.0 10.0 16 55
- 0.351552 12 13 cbr 1000 ------- 6 5.0 11.0 18 62
r 0.351582 12 1 ack 40 ------- 2 7.0 1.0 2 57
+ 0.351582 1 12 tcp 1040 ------- 2 1.0 7.0 4 69
- 0.351582 1 12 tcp 1040 ------- 2 1.0 7.0 4 69
+ 0.351582 1 12 tcp 1040 ------- 2 1.0 7.0 5 70
- 0.35161 1 12 tcp 1040 ------- 2 1.0 7.0 5 70
r 0.353552 12 13 cbr 1000 ------- 6 5.0 11.0 17 59
+ 0.353552 13 11 cbr 1000 ------- 6 5.0 11.0 17 59
- 0.353552 13 11 cbr 1000 ------- 6 5.0 11.0 17 59
r 0.35529 0 12 tcp 1040 ------- 1 0.0 6.0 6 65
+ 0.35529 12 13 tcp 1040 ------- 1 0.0 6.0 6 65
r 0.355318 0 12 tcp 1040 ------- 1 0.0 6.0 7 66
+ 0.355318 12 13 tcp 1040 ------- 1 0.0 6.0 7 66
d 0.355318 12 13 tcp 1040 ------- 1 0.0 6.0 7 66
+ 0.357143 4 12 cbr 1000 ------- 5 4.0 10.0 20 71
- 0.357143 4 12 cbr 1000 ------- 5 4.0 10.0 20 71
+ 0.357143 5 12 cbr 1000 ------- 6 5.0 11.0 20 72
- 0.357143 5 12 cbr 1000 ------- 6 5.0 11.0 20 72
r 0.357579 13 11 cbr 1000 ------- 6 5.0 11.0 16 56
r 0.359312 4 12 cbr 1000 ------- 5 4.0 10.0 19 67
+ 0.359312 12 13 cbr 1000 ------- 5 4.0 10.0 19 67
d 0.359312 12 13 cbr 1000 ------- 5 4.0 10.0 19 67
r 0.359312 5 12 cbr 1000 ------- 6 5.0 11.0 19 68
+ 0.359312 12 13 cbr 1000 ------- 6 5.0 11.0 19 68
d 0.359312 12 13 cbr 1000 ------- 6 5.0 11.0 19 68
- 0.359552 12 13 tcp 1040 ------- 1 0.0 6.0 4 63
r 0.359902 12 2 ack 40 ------- 3 8.0 2.0 2 60
+ 0.359902 2 12 tcp 1040 ------- 3 2.0 8.0 4 73
- 0.359902 2 12 tcp 1040 ------- 3 2.0 8.0 4 73
+ 0.359902 2 12 tcp 1040 ------- 3 2.0 8.0 5 74
- 0.35993 2 12 tcp 1040 ------- 3 2.0 8.0 5 74
r 0.361552 12 13 cbr 1000 ------- 5 4.0 10.0 18 61
+ 0.361552 13 10 cbr 1000 ------- 5 4.0 10.0 18 61
- 0.361552 13 10 cbr 1000 ------- 5 4.0 10.0 18 61
r 0.365579 13 10 cbr 1000 ------- 5 4.0 10.0 17 58
- 0.367872 12 13 tcp 1040 ------- 1 0.0 6.0 5 64
r 0.369552 12 13 cbr 1000 ------- 6 5.0 11.0 18 62
+ 0.369552 13 11 cbr 1000 ------- 6 5.0 11.0 18 62
- 0.369552 13 11 cbr 1000 ------- 6 5.0 11.0 18 62
r 0.37161 1 12 tcp 1040 ------- 2 1.0 7.0 4 69
+ 0.37161 12 13 tcp 1040 ------- 2 1.0 7.0 4 69
r 0.371638 1 12 tcp 1040 ------- 2 1.0 7.0 5 70
+ 0.371638 12 13 tcp 1040 ------- 2 1.0 7.0 5 70
r 0.373579 13 11 cbr 1000 ------- 6 5.0 11.0 17 59
+ 0.375 4 12 cbr 1000 ------- 5 4.0 10.0 21 75
- 0.375 4 12 cbr 1000 ------- 5 4.0 10.0 21 75
+ 0.375 5 12 cbr 1000 ------- 6 5.0 11.0 21 76
- 0.375 5 12 cbr 1000 ------- 6 5.0 11.0 21 76
- 0.376192 12 13 tcp 1040 ------- 1 0.0 6.0 6 65
r 0.37717 4 12 cbr 1000 ------- 5 4.0 10.0 20 71
+ 0.37717 12 13 cbr 1000 ------- 5 4.0 10.0 20 71
r 0.37717 5 12 cbr 1000 ------- 6 5.0 11.0 20 72
+ 0.37717 12 13 cbr 1000 ------- 6 5.0 11.0 20 72
d 0.37717 12 13 cbr 1000 ------- 6 5.0 11.0 20 72
r 0.377872 12 13 tcp 1040 ------- 1 0.0 6.0 4 63
+ 0.377872 13 6 tcp 1040 ------- 1 0.0 6.0 4 63
- 0.377872 13 6 tcp 1040 ------- 1 0.0 6.0 4 63
r 0.37993 2 12 tcp 1040 ------- 3 2.0 8.0 4 73
+ 0.37993 12 13 tcp 1040 ------- 3 2.0 8.0 4 73
d 0.37993 12 13 tcp 1040 ------- 3 2.0 8.0 4 73
r 0.379958 2 12 tcp 1040 ------- 3 2.0 8.0 5 74
+ 0.379958 12 13 tcp 1040 ------- 3 2.0 8.0 5 74
d 0.379958 12 13 tcp 1040 ------- 3 2.0 8.0 5 74
r 0.381579 13 10 cbr 1000 ------- 5 4.0 10.0 18 61
- 0.384512 12 13 tcp 1040 ------- 2 1.0 7.0 4 69
r 0.386192 12 13 tcp 1040 ------- 1 0.0 6.0 5 64
+ 0.386192 13 6 tcp 1040 ------- 1 0.0 6.0 5 64
- 0.386192 13 6 tcp 1040 ------- 1 0.0 6.0 5 64
r 0.389579 13 11 cbr 1000 ------- 6 5.0 11.0 18 62
- 0.392832 12 13 tcp 1040 ------- 2 1.0 7.0 5 70
+ 0.392857 4 12 cbr 1000 ------- 5 4.0 10.0 22 77
- 0.392857 4 12 cbr 1000 ------- 5 4.0 10.0 22 77
+ 0.392857 5 12 cbr 1000 ------- 6 5.0 11.0 22 78
- 0.392857 5 12 cbr 1000 ------- 6 5.0 11.0 22 78
r 0.394512 12 13 tcp 1040 ------- 1 0.0 6.0 6 65
+ 0.394512 13 6 tcp 1040 ------- 1 0.0 6.0 6 65
- 0.394512 13 6 tcp 1040 ------- 1 0.0 6.0 6 65
r 0.395027 4 12 cbr 1000 ------- 5 4.0 10.0 21 75
+ 0.395027 12 13 cbr 1000 ------- 5 4.0 10.0 21 75
r 0.395027 5 12 cbr 1000 ------- 6 5.0 11.0 21 76
+ 0.395027 12 13 cbr 1000 ------- 6 5.0 11.0 21 76
r 0.3979 13 6 tcp 1040 ------- 1 0.0 6.0 4 63
+ 0.3979 6 13 ack 40 ------- 1 6.0 0.0 4 79
- 0.3979 6 13 ack 40 ------- 1 6.0 0.0 4 79
- 0.401152 12 13 cbr 1000 ------- 5 4.0 10.0 20 71
+ 0.401604 3 12 tcp 1040 ---A--- 4 3.0 9.0 1 80
- 0.401604 3 12 tcp 1040 ---A--- 4 3.0 9.0 1 80
r 0.402832 12 13 tcp 1040 ------- 2 1.0 7.0 4 69
+ 0.402832 13 7 tcp 1040 ------- 2 1.0 7.0 4 69